# vtk DataFile Version 3.0
vtk output
ASCII
DATASET UNSTRUCTURED_GRID
POINTS 4165 double
8.000008e-01 8.750008e-01 0.000000e+00
8.000008e-01 8.750008e-01 -8.300008e-03
8.000009e-01 8.958308e-01 0.000000e+00
8.000009e-01 8.958308e-01 -8.300008e-03
8.000008e-01 8.750008e-01 -1.700002e-02
8.000009e-01 8.958308e-01 -1.700002e-02
8.000009e-01 9.166708e-01 -1.700002e-02
8.000009e-01 9.166708e-01 -8.300008e-03
8.000009e-01 9.166708e-01 0.000000e+00
8.000008e-01 8.750008e-01 -2.500002e-02
8.000009e-01 8.958308e-01 -2.500002e-02
8.000008e-01 8.750008e-01 -3.300003e-02
8.000009e-01 8.958308e-01 -3.300003e-02
8.000009e-01 9.166708e-01 -3.300003e-02
8.000009e-01 9.166708e-01 -2.500002e-02
8.000008e-01 8.750008e-01 -4.200004e-02
8.000009e-01 8.958308e-01 -4.200004e-02
8.000008e-01 8.750008e-01 -5.000005e-02
8.000009e-01 8.958308e-01 -5.000005e-02
8.000009e-01 9.166708e-01 -5.000005e-02
8.000009e-01 9.166708e-01 -4.200004e-02
8.000010e-01 9.375008e-01 0.000000e+00
8.000010e-01 9.375008e-01 -8.300008e-03
8.000010e-01 9.375008e-01 -1.700002e-02
8.000010e-01 9.583308e-01 -1.700002e-02
8.000010e-01 9.583308e-01 -8.300008e-03
8.000010e-01 9.583308e-01 0.000000e+00
8.000010e-01 9.375008e-01 -2.500002e-02
8.000010e-01 9.375008e-01 -3.300003e-02
8.000010e-01 9.583308e-01 -3.300003e-02
8.000010e-01 9.583308e-01 -2.500002e-02
8.000010e-01 9.375008e-01 -4.200004e-02
8.000010e-01 9.375008e-01 -5.000005e-02
8.000010e-01 9.583308e-01 -5.000005e-02
8.000010e-01 9.583308e-01 -4.200004e-02
8.000010e-01 9.791708e-01 0.000000e+00
8.000010e-01 9.791708e-01 -8.300008e-03
8.000010e-01 9.791708e-01 -1.700002e-02
8.000010e-01 1.000001e+00 -1.700002e-02
8.000010e-01 1.000001e+00 -8.300008e-03
8.000010e-01 1.000001e+00 0.000000e+00
8.000010e-01 9.791708e-01 -2.500002e-02
8.000010e-01 9.791708e-01 -3.300003e-02
8.000010e-01 1.000001e+00 -3.300003e-02
8.000010e-01 1.000001e+00 -2.500002e-02
8.000010e-01 9.791708e-01 -4.200004e-02
8.000010e-01 9.791708e-01 -5.000005e-02
8.000010e-01 1.000001e+00 -5.000005e-02
8.000010e-01 1.000001e+00 -4.200004e-02
8.000007e-01 7.500008e-01 0.000000e+00
8.000007e-01 7.500008e-01 -8.300008e-03
8.000008e-01 7.708308e-01 0.000000e+00
8.000008e-01 7.708308e-01 -8.300008e-03
8.000007e-01 7.500008e-01 -1.700002e-02
8.000008e-01 7.708308e-01 -1.700002e-02
8.000008e-01 7.916708e-01 -1.700002e-02
8.000008e-01 7.916708e-01 -8.300008e-03
8.000008e-01 7.916708e-01 0.000000e+00
8.000007e-01 7.500008e-01 -2.500002e-02
8.000008e-01 7.708308e-01 -2.500002e-02
8.000007e-01 7.500008e-01 -3.300003e-02
8.000008e-01 7.708308e-01 -3.300003e-02
8.000008e-01 7.916708e-01 -3.300003e-02
8.000008e-01 7.916708e-01 -2.500002e-02
8.000007e-01 7.500008e-01 -4.200004e-02
8.000008e-01 7.708308e-01 -4.200004e-02
8.000007e-01 7.500008e-01 -5.000005e-02
8.000008e-01 7.708308e-01 -5.000005e-02
8.000008e-01 7.916708e-01 -5.000005e-02
8.000008e-01 7.916708e-01 -4.200004e-02
8.000008e-01 8.125008e-01 0.000000e+00
8.000008e-01 8.125008e-01 -8.300008e-03
8.000008e-01 8.125008e-01 -1.700002e-02
8.000008e-01 8.333308e-01 -1.700002e-02
8.000008e-01 8.333308e-01 -8.300008e-03
8.000008e-01 8.333308e-01 0.000000e+00
8.000008e-01 8.125008e-01 -2.500002e-02
8.000008e-01 8.125008e-01 -3.300003e-02
8.000008e-01 8.333308e-01 -3.300003e-02
8.000008e-01 8.333308e-01 -2.500002e-02
8.000008e-01 8.125008e-01 -4.200004e-02
8.000008e-01 8.125008e-01 -5.000005e-02
8.000008e-01 8.333308e-01 -5.000005e-02
8.000008e-01 8.333308e-01 -4.200004e-02
8.000008e-01 8.541708e-01 0.000000e+00
8.000008e-01 8.541708e-01 -8.300008e-03
8.000008e-01 8.541708e-01 -1.700002e-02
8.000008e-01 8.541708e-01 -2.500002e-02
8.000008e-01 8.541708e-01 -3.300003e-02
8.000008e-01 8.541708e-01 -4.200004e-02
8.000008e-01 8.541708e-01 -5.000005e-02
8.000006e-01 6.250008e-01 0.000000e+00
8.000006e-01 6.250008e-01 -8.300008e-03
8.000007e-01 6.458308e-01 0.000000e+00
8.000007e-01 6.458308e-01 -8.300008e-03
8.000006e-01 6.250008e-01 -1.700002e-02
8.000007e-01 6.458308e-01 -1.700002e-02
8.000007e-01 6.666708e-01 -1.700002e-02
8.000007e-01 6.666708e-01 -8.300008e-03
8.000007e-01 6.666708e-01 0.000000e+00
8.000006e-01 6.250008e-01 -2.500002e-02
8.000007e-01 6.458308e-01 -2.500002e-02
8.000006e-01 6.250008e-01 -3.300003e-02
8.000007e-01 6.458308e-01 -3.300003e-02
8.000007e-01 6.666708e-01 -3.300003e-02
8.000007e-01 6.666708e-01 -2.500002e-02
8.000006e-01 6.250008e-01 -4.200004e-02
8.000007e-01 6.458308e-01 -4.200004e-02
8.000006e-01 6.250008e-01 -5.000005e-02
8.000007e-01 6.458308e-01 -5.000005e-02
8.000007e-01 6.666708e-01 -5.000005e-02
8.000007e-01 6.666708e-01 -4.200004e-02
8.000007e-01 6.875008e-01 0.000000e+00
8.000007e-01 6.875008e-01 -8.300008e-03
8.000007e-01 6.875008e-01 -1.700002e-02
8.000007e-01 7.083308e-01 -1.700002e-02
8.000007e-01 7.083308e-01 -8.300008e-03
8.000007e-01 7.083308e-01 0.000000e+00
8.000007e-01 6.875008e-01 -2.500002e-02
8.000007e-01 6.875008e-01 -3.300003e-02
8.000007e-01 7.083308e-01 -3.300003e-02
8.000007e-01 7.083308e-01 -2.500002e-02
8.000007e-01 6.875008e-01 -4.200004e-02
8.000007e-01 6.875008e-01 -5.000005e-02
8.000007e-01 7.083308e-01 -5.000005e-02
8.000007e-01 7.083308e-01 -4.200004e-02
8.000007e-01 7.291708e-01 0.000000e+00
8.000007e-01 7.291708e-01 -8.300008e-03
8.000007e-01 7.291708e-01 -1.700002e-02
8.000007e-01 7.291708e-01 -2.500002e-02
8.000007e-01 7.291708e-01 -3.300003e-02
8.000007e-01 7.291708e-01 -4.200004e-02
8.000007e-01 7.291708e-01 -5.000005e-02
8.000005e-01 5.000008e-01 0.000000e+00
8.000005e-01 5.000008e-01 -8.300008e-03
8.000005e-01 5.208308e-01 0.000000e+00
8.000005e-01 5.208308e-01 -8.300008e-03
8.000005e-01 5.000008e-01 -1.700002e-02
8.000005e-01 5.208308e-01 -1.700002e-02
8.000005e-01 5.416708e-01 -1.700002e-02
8.000005e-01 5.416708e-01 -8.300008e-03
8.000005e-01 5.416708e-01 0.000000e+00
8.000005e-01 5.000008e-01 -2.500002e-02
8.000005e-01 5.208308e-01 -2.500002e-02
8.000005e-01 5.000008e-01 -3.300003e-02
8.000005e-01 5.208308e-01 -3.300003e-02
8.000005e-01 5.416708e-01 -3.300003e-02
8.000005e-01 5.416708e-01 -2.500002e-02
8.000005e-01 5.000008e-01 -4.200004e-02
8.000005e-01 5.208308e-01 -4.200004e-02
8.000005e-01 5.000008e-01 -5.000005e-02
8.000005e-01 5.208308e-01 -5.000005e-02
8.000005e-01 5.416708e-01 -5.000005e-02
8.000005e-01 5.416708e-01 -4.200004e-02
8.000005e-01 5.625008e-01 0.000000e+00
8.000005e-01 5.625008e-01 -8.300008e-03
8.000005e-01 5.625008e-01 -1.700002e-02
8.000006e-01 5.833308e-01 -1.700002e-02
8.000006e-01 5.833308e-01 -8.300008e-03
8.000006e-01 5.833308e-01 0.000000e+00
8.000005e-01 5.625008e-01 -2.500002e-02
8.000005e-01 5.625008e-01 -3.300003e-02
8.000006e-01 5.833308e-01 -3.300003e-02
8.000006e-01 5.833308e-01 -2.500002e-02
8.000005e-01 5.625008e-01 -4.200004e-02
8.000005e-01 5.625008e-01 -5.000005e-02
8.000006e-01 5.833308e-01 -5.000005e-02
8.000006e-01 5.833308e-01 -4.200004e-02
8.000006e-01 6.041708e-01 0.000000e+00
8.000006e-01 6.041708e-01 -8.300008e-03
8.000006e-01 6.041708e-01 -1.700002e-02
8.000006e-01 6.041708e-01 -2.500002e-02
8.000006e-01 6.041708e-01 -3.300003e-02
8.000006e-01 6.041708e-01 -4.200004e-02
8.000006e-01 6.041708e-01 -5.000005e-02
8.000004e-01 3.750008e-01 0.000000e+00
8.000004e-01 3.750008e-01 -8.300008e-03
8.000004e-01 3.958308e-01 0.000000e+00
8.000004e-01 3.958308e-01 -8.300008e-03
8.000004e-01 3.750008e-01 -1.700002e-02
8.000004e-01 3.958308e-01 -1.700002e-02
8.000004e-01 4.166708e-01 -1.700002e-02
8.000004e-01 4.166708e-01 -8.300008e-03
8.000004e-01 4.166708e-01 0.000000e+00
8.000004e-01 3.750008e-01 -2.500002e-02
8.000004e-01 3.958308e-01 -2.500002e-02
8.000004e-01 3.750008e-01 -3.300003e-02
8.000004e-01 3.958308e-01 -3.300003e-02
8.000004e-01 4.166708e-01 -3.300003e-02
8.000004e-01 4.166708e-01 -2.500002e-02
8.000004e-01 3.750008e-01 -4.200004e-02
8.000004e-01 3.958308e-01 -4.200004e-02
8.000004e-01 3.750008e-01 -5.000005e-02
8.000004e-01 3.958308e-01 -5.000005e-02
8.000004e-01 4.166708e-01 -5.000005e-02
8.000004e-01 4.166708e-01 -4.200004e-02
8.000004e-01 4.375008e-01 0.000000e+00
8.000004e-01 4.375008e-01 -8.300008e-03
8.000004e-01 4.375008e-01 -1.700002e-02
8.000004e-01 4.583308e-01 -1.700002e-02
8.000004e-01 4.583308e-01 -8.300008e-03
8.000004e-01 4.583308e-01 0.000000e+00
8.000004e-01 4.375008e-01 -2.500002e-02
8.000004e-01 4.375008e-01 -3.300003e-02
8.000004e-01 4.583308e-01 -3.300003e-02
8.000004e-01 4.583308e-01 -2.500002e-02
8.000004e-01 4.375008e-01 -4.200004e-02
8.000004e-01 4.375008e-01 -5.000005e-02
8.000004e-01 4.583308e-01 -5.000005e-02
8.000004e-01 4.583308e-01 -4.200004e-02
8.000005e-01 4.791708e-01 0.000000e+00
8.000005e-01 4.791708e-01 -8.300008e-03
8.000005e-01 4.791708e-01 -1.700002e-02
8.000005e-01 4.791708e-01 -2.500002e-02
8.000005e-01 4.791708e-01 -3.300003e-02
8.000005e-01 4.791708e-01 -4.200004e-02
8.000005e-01 4.791708e-01 -5.000005e-02
8.000003e-01 2.500008e-01 0.000000e+00
8.000003e-01 2.500008e-01 -8.300008e-03
8.000003e-01 2.708308e-01 0.000000e+00
8.000003e-01 2.708308e-01 -8.300008e-03
8.000003e-01 2.500008e-01 -1.700002e-02
8.000003e-01 2.708308e-01 -1.700002e-02
8.000003e-01 2.916708e-01 -1.700002e-02
8.000003e-01 2.916708e-01 -8.300008e-03
8.000003e-01 2.916708e-01 0.000000e+00
8.000003e-01 2.500008e-01 -2.500002e-02
8.000003e-01 2.708308e-01 -2.500002e-02
8.000003e-01 2.500008e-01 -3.300003e-02
8.000003e-01 2.708308e-01 -3.300003e-02
8.000003e-01 2.916708e-01 -3.300003e-02
8.000003e-01 2.916708e-01 -2.500002e-02
8.000003e-01 2.500008e-01 -4.200004e-02
8.000003e-01 2.708308e-01 -4.200004e-02
8.000003e-01 2.500008e-01 -5.000005e-02
8.000003e-01 2.708308e-01 -5.000005e-02
8.000003e-01 2.916708e-01 -5.000005e-02
8.000003e-01 2.916708e-01 -4.200004e-02
8.000003e-01 3.125008e-01 0.000000e+00
8.000003e-01 3.125008e-01 -8.300008e-03
8.000003e-01 3.125008e-01 -1.700002e-02
8.000003e-01 3.333308e-01 -1.700002e-02
8.000003e-01 3.333308e-01 -8.300008e-03
8.000003e-01 3.333308e-01 0.000000e+00
8.000003e-01 3.125008e-01 -2.500002e-02
8.000003e-01 3.125008e-01 -3.300003e-02
8.000003e-01 3.333308e-01 -3.300003e-02
8.000003e-01 3.333308e-01 -2.500002e-02
[...]
POINT_DATA 4165
SCALARS u double 1
LOOKUP_TABLE default
1.339e-07
8.900e-06
1.795e-07
6.908e-06
1.824e-05
1.418e-05
1.051e-05
5.086e-06
2.008e-07
2.693e-05
2.102e-05
3.569e-05
2.795e-05
2.100e-05
1.569e-05
4.557e-05
3.579e-05
5.435e-05
4.276e-05
3.238e-05
2.703e-05
1.956e-07
3.495e-06
7.336e-06
4.763e-06
2.171e-06
1.618e-07
1.112e-05
1.507e-05
1.034e-05
7.461e-06
1.959e-05
2.359e-05
1.664e-05
1.368e-05
9.883e-08
1.161e-06
2.813e-06
1.056e-06
2.694e-07
2.025e-08
4.675e-06
6.762e-06
3.748e-06
2.231e-06
9.258e-06
1.151e-05
7.615e-06
5.730e-06
-4.601e-07
2.156e-05
-3.409e-07
1.958e-05
4.451e-05
4.037e-05
3.603e-05
1.751e-05
-2.251e-07
6.553e-05
5.942e-05
8.651e-05
7.843e-05
6.999e-05
5.302e-05
1.101e-04
9.980e-05
1.310e-04
1.188e-04
1.060e-04
8.907e-05
-1.162e-07
1.536e-05
3.156e-05
2.704e-05
1.318e-05
-1.755e-08
4.645e-05
6.133e-05
5.260e-05
3.981e-05
7.806e-05
9.294e-05
7.978e-05
6.699e-05
6.708e-08
1.101e-05
2.257e-05
3.325e-05
4.398e-05
5.606e-05
6.680e-05
-1.101e-06
3.040e-05
-1.013e-06
2.933e-05
6.323e-05
6.095e-05
5.831e-05
2.809e-05
-9.158e-07
9.330e-05
8.990e-05
1.233e-04
1.188e-04
1.136e-04
8.598e-05
1.570e-04
1.512e-04
1.870e-04
1.801e-04
1.722e-04
1.446e-04
-8.098e-07
2.669e-05
5.533e-05
5.203e-05
2.512e-05
-6.971e-07
8.156e-05
1.077e-04
1.012e-04
7.666e-05
1.371e-04
1.632e-04
1.534e-04
1.288e-04
-5.797e-07
2.341e-05
4.841e-05
7.130e-05
9.413e-05
1.198e-04
1.426e-04
-1.356e-06
3.336e-05
-1.348e-06
3.328e-05
6.956e-05
6.939e-05
6.886e-05
3.304e-05
-1.326e-06
1.027e-04
1.025e-04
1.358e-04
1.355e-04
1.344e-04
1.017e-04
1.730e-04
1.726e-04
2.061e-04
2.055e-04
2.039e-04
1.712e-04
-1.290e-06
3.263e-05
6.798e-05
6.675e-05
3.205e-05
-1.240e-06
1.004e-04
1.327e-04
1.302e-04
9.854e-05
1.690e-04
2.013e-04
1.976e-04
1.659e-04
-1.176e-06
3.131e-05
6.517e-05
9.618e-05
1.271e-04
1.619e-04
1.928e-04
-1.101e-06
3.040e-05
-1.176e-06
3.131e-05
6.323e-05
6.517e-05
6.675e-05
3.205e-05
-1.240e-06
9.330e-05
9.618e-05
1.233e-04
1.271e-04
1.302e-04
9.854e-05
1.570e-04
1.619e-04
1.870e-04
1.928e-04
1.976e-04
1.659e-04
-1.290e-06
3.263e-05
6.798e-05
6.886e-05
3.304e-05
-1.326e-06
1.004e-04
1.327e-04
1.344e-04
1.017e-04
1.690e-04
2.013e-04
2.039e-04
1.712e-04
-1.348e-06
3.328e-05
6.939e-05
1.025e-04
1.355e-04
1.726e-04
2.055e-04
-4.601e-07
2.156e-05
-5.797e-07
2.341e-05
4.451e-05
4.841e-05
5.203e-05
2.512e-05
-6.971e-07
6.553e-05
7.130e-05
8.651e-05
9.413e-05
1.012e-04
7.666e-05
1.101e-04
1.198e-04
1.310e-04
1.426e-04
1.534e-04
1.288e-04
-8.098e-07
2.669e-05
5.533e-05
5.831e-05
2.809e-05
-9.158e-07
8.156e-05
1.077e-04
1.136e-04
8.598e-05
1.371e-04
1.632e-04
1.722e-04
1.446e-04
-1.013e-06
2.933e-05
6.095e-05
8.990e-05
1.188e-04
1.512e-04
1.801e-04
1.339e-07
8.900e-06
6.706e-08
1.101e-05
1.824e-05
2.256e-05
2.704e-05
1.318e-05
-1.758e-08
2.693e-05
3.325e-05
3.569e-05
4.398e-05
5.260e-05
3.981e-05
4.557e-05
5.606e-05
5.435e-05
6.680e-05
7.978e-05
6.699e-05
-1.162e-07
1.536e-05
3.156e-05
3.603e-05
1.751e-05
-2.252e-07
4.645e-05
6.132e-05
6.999e-05
5.302e-05
7.806e-05
9.294e-05
1.060e-04
8.907e-05
-3.409e-07
1.958e-05
4.037e-05
5.942e-05
7.843e-05
9.980e-05
1.188e-04
2.026e-08
2.693e-07
9.870e-08
1.159e-06
1.056e-06
2.811e-06
4.766e-06
2.173e-06
1.618e-07
2.231e-06
4.671e-06
3.748e-06
6.757e-06
1.035e-05
7.466e-06
5.730e-06
9.252e-06
7.614e-06
1.150e-05
1.665e-05
1.369e-05
1.956e-07
3.495e-06
7.335e-06
1.050e-05
5.083e-06
2.008e-07
1.112e-05
1.507e-05
2.099e-05
1.568e-05
1.959e-05
2.359e-05
3.237e-05
2.702e-05
1.795e-07
6.908e-06
1.418e-05
2.102e-05
2.795e-05
3.579e-05
4.276e-05
1.920e-07
2.598e-07
3.009e-07
3.873e-07
3.324e-07
2.489e-07
3.096e-07
2.835e-07
3.673e-07
4.059e-07
1.641e-07
-4.117e-23
0.000e+00
2.562e-07
3.009e-07
3.938e-07
4.546e-07
5.025e-07
4.428e-07
3.459e-07
4.732e-07
4.317e-07
4.619e-07
5.144e-07
2.827e-07
2.028e-23
0.000e+00
2.915e-07
3.831e-07
4.798e-07
5.345e-07
5.535e-07
5.072e-07
4.131e-07
5.332e-07
4.598e-07
4.491e-07
5.398e-07
3.082e-07
0.000e+00
1.015e-07
2.681e-07
4.368e-07
5.274e-07
5.662e-07
5.764e-07
5.431e-07
4.553e-07
5.399e-07
4.373e-07
4.320e-07
5.419e-07
2.569e-07
0.000e+00
0.000e+00
2.494e-07
4.695e-07
5.557e-07
5.863e-07
5.955e-07
5.652e-07
4.791e-07
5.498e-07
4.358e-07
4.511e-07
5.609e-07
2.452e-07
0.000e+00
1.831e-23
2.505e-07
4.834e-07
5.702e-07
6.020e-07
6.015e-07
5.680e-07
4.809e-07
5.698e-07
4.679e-07
4.783e-07
5.726e-07
2.867e-07
0.000e+00
2.871e-08
3.102e-07
-6.243e-07
-4.309e-07
-6.278e-07
-4.276e-07
-2.379e-07
-2.279e-07
-2.192e-07
-4.240e-07
-6.297e-07
-5.052e-08
-3.453e-08
1.253e-07
1.461e-07
1.629e-07
-2.123e-08
2.826e-07
3.062e-07
3.250e-07
-6.310e-07
-4.212e-07
-2.125e-07
-2.085e-07
-4.198e-07
-6.323e-07
-1.120e-08
1.755e-07
1.836e-07
-4.881e-09
3.391e-07
3.483e-07
-6.339e-07
-4.198e-07
-2.071e-07
-2.083e-07
-4.210e-07
-6.355e-07
-2.435e-09
1.869e-07
1.851e-07
-3.786e-09
3.522e-07
3.499e-07
-1.599e-06
-1.471e-06
-1.637e-06
-1.505e-06
-1.327e-06
-1.355e-06
-1.377e-06
-1.531e-06
-1.667e-06
-1.168e-06
-1.191e-06
-9.962e-07
-1.013e-06
-1.025e-06
-1.208e-06
-8.139e-07
-8.242e-07
-8.315e-07
-1.689e-06
-1.551e-06
-1.394e-06
-1.407e-06
-1.566e-06
-1.706e-06
-1.222e-06
-1.035e-06
-1.042e-06
-1.231e-06
-8.369e-07
-8.411e-07
-1.718e-06
-1.576e-06
-1.415e-06
-1.421e-06
-1.582e-06
-1.726e-06
-1.238e-06
-1.047e-06
-1.050e-06
-1.242e-06
-8.444e-07
-8.467e-07
-1.966e-06
-1.956e-06
-2.016e-06
-2.005e-06
-1.924e-06
-1.973e-06
-2.011e-06
-2.044e-06
-2.055e-06
-1.873e-06
-1.919e-06
-1.801e-06
-1.845e-06
-1.880e-06
-1.956e-06
-1.709e-06
-1.751e-06
-1.783e-06
-2.086e-06
-2.075e-06
-2.041e-06
-2.064e-06
-2.098e-06
-2.110e-06
-1.985e-06
-1.908e-06
-1.928e-06
-2.007e-06
-1.809e-06
-1.827e-06
-2.126e-06
-2.115e-06
-2.080e-06
-2.091e-06
-2.126e-06
-2.137e-06
-2.022e-06
-1.943e-06
-1.952e-06
-2.032e-06
-1.841e-06
-1.849e-06
-1.599e-06
-1.709e-06
-1.637e-06
-1.751e-06
-1.801e-06
-1.845e-06
-1.880e-06
-1.783e-06
-1.667e-06
-1.873e-06
-1.919e-06
-1.924e-06
-1.973e-06
-2.011e-06
-1.956e-06
-1.956e-06
-2.005e-06
-2.044e-06
-1.689e-06
-1.809e-06
-1.908e-06
-1.928e-06
-1.827e-06
-1.706e-06
-1.985e-06
-2.041e-06
-2.064e-06
-2.007e-06
-2.075e-06
-2.098e-06
-1.718e-06
-1.841e-06
-1.943e-06
-1.952e-06
-1.849e-06
-1.726e-06
-2.022e-06
-2.080e-06
-2.091e-06
-2.032e-06
-2.115e-06
-2.126e-06
-6.244e-07
-8.139e-07
-6.278e-07
-8.242e-07
-9.962e-07
-1.013e-06
-1.026e-06
-8.315e-07
-6.297e-07
-1.168e-06
-1.191e-06
-1.327e-06
-1.356e-06
-1.377e-06
-1.208e-06
-1.471e-06
-1.505e-06
-1.531e-06
-6.310e-07
-8.369e-07
-1.035e-06
-1.042e-06
-8.411e-07
-6.323e-07
-1.222e-06
-1.394e-06
-1.407e-06
-1.231e-06
-1.551e-06
-1.566e-06
-6.339e-07
-8.444e-07
-1.047e-06
-1.050e-06
-8.467e-07
-6.356e-07
-1.238e-06
-1.415e-06
-1.421e-06
-1.242e-06
-1.576e-06
-1.582e-06
4.130e-07
2.826e-07
4.368e-07
3.062e-07
1.253e-07
1.460e-07
1.629e-07
3.250e-07
4.553e-07
-5.055e-08
-3.456e-08
-2.379e-07
-2.279e-07
-2.192e-07
-2.126e-08
-4.310e-07
-4.276e-07
-4.240e-07
4.694e-07
3.391e-07
1.755e-07
1.836e-07
3.483e-07
4.791e-07
-1.124e-08
-2.125e-07
-2.085e-07
-4.913e-09
-4.212e-07
-4.198e-07
4.834e-07
3.522e-07
1.869e-07
1.851e-07
3.499e-07
4.808e-07
-2.468e-09
-2.072e-07
-2.083e-07
-3.819e-09
-4.198e-07
-4.210e-07
1.016e-07
2.678e-07
0.000e+00
2.565e-07
4.493e-07
4.375e-07
4.322e-07
2.491e-07
0.000e+00
5.398e-07
5.399e-07
5.535e-07
5.662e-07
5.764e-07
5.419e-07
5.071e-07
5.274e-07
5.431e-07
0.000e+00
2.448e-07
4.360e-07
4.513e-07
2.502e-07
0.000e+00
5.498e-07
5.862e-07
5.955e-07
5.609e-07
5.557e-07
5.652e-07
0.000e+00
2.863e-07
4.681e-07
4.785e-07
3.099e-07
2.871e-08
5.699e-07
6.020e-07
6.015e-07
5.726e-07
5.701e-07
5.680e-07
-5.160e-07
-3.809e-07
-2.480e-07
-2.598e-07
-4.085e-07
-5.584e-07
-1.207e-07
-2.409e-09
1.975e-08
-1.158e-07
1.031e-07
1.429e-07
-5.874e-07
-4.242e-07
-2.615e-07
-2.566e-07
-4.313e-07
-6.063e-07
-1.032e-07
4.654e-08
7.446e-08
-8.647e-08
1.831e-07
2.207e-07
-6.178e-07
-4.328e-07
-2.480e-07
-6.828e-08
1.012e-07
2.541e-07
-1.225e-06
-1.129e-06
-1.022e-06
-1.113e-06
-1.229e-06
-1.332e-06
-9.057e-07
-7.810e-07
-8.497e-07
-9.859e-07
-6.502e-07
-7.064e-07
-1.420e-06
-1.310e-06
-1.186e-06
-1.244e-06
-1.376e-06
-1.493e-06
-1.050e-06
-9.029e-07
-9.433e-07
-1.099e-06
-7.479e-07
-7.779e-07
-1.552e-06
-1.429e-06
-1.291e-06
-1.138e-06
-9.736e-07
-7.991e-07
-1.502e-06
-1.494e-06
-1.471e-06
-1.597e-06
-1.622e-06
-1.631e-06
-1.431e-06
-1.377e-06
-1.496e-06
-1.554e-06
-1.308e-06
-1.421e-06
-1.739e-06
-1.730e-06
-1.703e-06
-1.791e-06
-1.820e-06
-1.830e-06
-1.658e-06
-1.595e-06
-1.678e-06
-1.744e-06
-1.516e-06
-1.594e-06
-1.905e-06
-1.895e-06
-1.865e-06
-1.815e-06
-1.746e-06
-1.658e-06
-1.225e-06
-1.308e-06
-1.377e-06
-1.496e-06
-1.421e-06
-1.332e-06
-1.431e-06
-1.471e-06
-1.597e-06
-1.554e-06
-1.494e-06
-1.622e-06
-1.420e-06
-1.516e-06
-1.595e-06
-1.678e-06
-1.594e-06
-1.493e-06
-1.658e-06
-1.703e-06
-1.791e-06
-1.744e-06
-1.730e-06
-1.820e-06
-1.552e-06
-1.658e-06
-1.746e-06
-1.815e-06
-1.865e-06
-1.895e-06
-5.160e-07
-6.502e-07
-7.810e-07
-8.498e-07
-7.064e-07
-5.584e-07
-9.057e-07
-1.022e-06
-1.113e-06
-9.859e-07
-1.129e-06
-1.229e-06
-5.874e-07
-7.479e-07
-9.029e-07
-9.433e-07
-7.779e-07
-6.063e-07
-1.050e-06
-1.186e-06
-1.244e-06
-1.099e-06
-1.310e-06
-1.376e-06
-6.178e-07
-7.992e-07
-9.736e-07
-1.138e-06
-1.291e-06
-1.429e-06
1.919e-07
1.031e-07
-2.437e-09
1.972e-08
1.429e-07
2.489e-07
-1.207e-07
-2.480e-07
-2.598e-07
-1.158e-07
-3.809e-07
-4.085e-07
3.009e-07
1.831e-07
4.651e-08
7.443e-08
2.207e-07
3.459e-07
-1.032e-07
-2.615e-07
-2.566e-07
-8.650e-08
-4.242e-07
-4.314e-07
3.831e-07
2.541e-07
1.012e-07
-6.831e-08
-2.481e-07
-4.328e-07
-4.113e-23
1.638e-07
2.835e-07
3.674e-07
2.559e-07
0.000e+00
3.096e-07
3.009e-07
3.873e-07
4.059e-07
2.598e-07
3.324e-07
0.000e+00
2.823e-07
4.318e-07
4.620e-07
2.911e-07
0.000e+00
4.732e-07
4.547e-07
5.025e-07
5.145e-07
3.938e-07
4.428e-07
0.000e+00
3.078e-07
4.600e-07
5.332e-07
5.345e-07
4.797e-07
-8.004e-08
7.780e-07
-7.302e-08
6.171e-07
1.663e-06
1.338e-06
1.009e-06
4.525e-07
-6.511e-08
2.470e-06
2.001e-06
3.272e-06
2.665e-06
2.057e-06
1.530e-06
4.173e-06
3.412e-06
4.976e-06
4.076e-06
3.184e-06
2.654e-06
-5.512e-08
2.998e-07
7.037e-07
4.513e-07
1.751e-07
-4.140e-08
1.096e-06
1.500e-06
1.038e-06
7.358e-07
1.961e-06
2.369e-06
1.694e-06
1.386e-06
-2.297e-08
8.929e-08
2.650e-07
9.995e-08
1.618e-08
-9.989e-09
4.626e-07
6.837e-07
3.868e-07
2.253e-07
9.473e-07
1.185e-06
7.974e-07
5.974e-07
-1.465e-07
1.298e-06
-1.311e-07
1.267e-06
2.798e-06
2.715e-06
2.594e-06
1.217e-06
-1.174e-07
4.167e-06
4.033e-06
5.530e-06
5.345e-06
5.091e-06
3.847e-06
7.061e-06
6.817e-06
8.422e-06
8.127e-06
7.729e-06
6.487e-06
-1.055e-07
1.144e-06
2.431e-06
2.220e-06
1.047e-06
-9.561e-08
3.598e-06
4.757e-06
4.339e-06
3.284e-06
6.057e-06
7.214e-06
6.577e-06
5.523e-06
-8.729e-08
9.235e-07
1.962e-06
2.904e-06
3.839e-06
4.889e-06
5.823e-06
-2.509e-07
1.281e-06
-2.347e-07
1.294e-06
2.886e-06
2.894e-06
2.898e-06
1.306e-06
-2.173e-07
4.360e-06
4.363e-06
5.834e-06
5.832e-06
5.820e-06
4.360e-06
7.491e-06
7.483e-06
8.964e-06
8.950e-06
8.920e-06
7.461e-06
-1.993e-07
1.315e-06
2.896e-06
2.882e-06
1.318e-06
-1.811e-07
4.345e-06
5.793e-06
5.742e-06
4.314e-06
7.419e-06
8.866e-06
8.774e-06
7.347e-06
-1.633e-07
1.314e-06
2.851e-06
4.257e-06
5.658e-06
7.232e-06
8.632e-06
-3.017e-07
1.237e-06
-3.002e-07
1.238e-06
2.849e-06
2.850e-06
2.854e-06
1.242e-06
-2.956e-07
4.331e-06
4.332e-06
5.813e-06
5.814e-06
5.817e-06
4.335e-06
7.480e-06
7.480e-06
8.961e-06
8.962e-06
8.964e-06
7.483e-06
-2.882e-07
1.249e-06
2.860e-06
2.867e-06
1.258e-06
-2.781e-07
4.340e-06
5.821e-06
5.826e-06
4.347e-06
7.486e-06
8.966e-06
8.968e-06
7.490e-06
-2.655e-07
1.269e-06
2.877e-06
4.354e-06
5.831e-06
7.492e-06
8.969e-06
-2.510e-07
1.281e-06
-2.655e-07
1.269e-06
2.886e-06
2.877e-06
2.867e-06
1.258e-06
-2.781e-07
4.360e-06
4.354e-06
5.834e-06
5.831e-06
5.826e-06
4.347e-06
7.491e-06
7.492e-06
8.964e-06
8.969e-06
8.968e-06
7.490e-06
-2.882e-07
1.249e-06
2.860e-06
2.854e-06
1.242e-06
-2.956e-07
4.340e-06
5.821e-06
5.817e-06
4.335e-06
7.486e-06
8.966e-06
8.964e-06
7.483e-06
-3.002e-07
1.238e-06
2.850e-06
4.332e-06
5.814e-06
7.480e-06
8.962e-06
-1.465e-07
1.298e-06
-1.634e-07
1.314e-06
2.798e-06
2.851e-06
2.882e-06
1.318e-06
-1.811e-07
4.167e-06
4.257e-06
5.530e-06
5.658e-06
5.742e-06
4.314e-06
7.061e-06
7.232e-06
8.422e-06
8.632e-06
8.774e-06
7.347e-06
-1.993e-07
1.315e-06
2.896e-06
2.898e-06
1.306e-06
-2.173e-07
4.345e-06
5.792e-06
5.820e-06
4.360e-06
7.419e-06
8.866e-06
8.920e-06
7.461e-06
-2.347e-07
1.294e-06
2.894e-06
4.363e-06
5.832e-06
7.483e-06
8.950e-06
-8.006e-08
7.779e-07
-8.731e-08
9.235e-07
1.663e-06
1.962e-06
2.220e-06
1.047e-06
-9.563e-08
2.470e-06
2.904e-06
3.272e-06
3.839e-06
4.339e-06
3.284e-06
4.173e-06
4.889e-06
4.975e-06
5.823e-06
6.577e-06
5.523e-06
-1.056e-07
1.144e-06
2.431e-06
2.594e-06
1.217e-06
-1.174e-07
3.598e-06
4.757e-06
5.091e-06
3.847e-06
6.057e-06
7.214e-06
7.728e-06
6.486e-06
-1.311e-07
1.267e-06
2.715e-06
4.033e-06
5.345e-06
6.817e-06
8.127e-06
-9.997e-09
1.613e-08
-2.294e-08
8.914e-08
9.986e-08
2.646e-07
4.516e-07
1.752e-07
-4.143e-08
2.252e-07
4.621e-07
3.866e-07
6.830e-07
1.038e-06
7.361e-07
5.972e-07
9.466e-07
7.972e-07
1.184e-06
1.695e-06
1.386e-06
-5.513e-08
2.998e-07
7.036e-07
1.008e-06
4.522e-07
-6.511e-08
1.096e-06
1.500e-06
2.056e-06
1.529e-06
1.961e-06
2.369e-06
3.182e-06
2.653e-06
-7.304e-08
6.170e-07
1.338e-06
2.001e-06
2.664e-06
3.411e-06
4.076e-06
-8.772e-08
-6.951e-08
-4.917e-08
-3.841e-08
-6.686e-08
-9.129e-08
-2.627e-08
1.363e-10
1.942e-08
-6.526e-09
-9.486e-09
0.000e+00
0.000e+00
4.182e-08
-9.223e-08
-6.625e-08
-3.613e-08
-4.227e-08
-6.796e-08
-9.142e-08
-1.788e-09
3.211e-08
2.243e-08
-1.128e-08
4.035e-08
0.000e+00
0.000e+00
2.558e-08
-8.828e-08
-7.062e-08
-5.312e-08
-6.471e-08
-7.056e-08
-8.117e-08
-3.392e-08
-1.131e-08
-5.182e-08
-6.029e-08
1.813e-08
0.000e+00
-1.398e-08
-3.287e-08
-6.781e-08
-6.356e-08
-6.936e-08
-5.889e-08
-4.545e-08
-4.595e-08
-8.031e-08
-8.809e-08
-1.087e-07
-8.387e-08
-8.571e-08
-3.222e-23
0.000e+00
-8.320e-08
-1.419e-08
-1.236e-08
-2.892e-08
2.514e-08
3.687e-08
2.767e-08
-5.975e-08
-9.199e-08
-3.707e-08
-5.085e-09
-8.403e-08
1.364e-23
-2.011e-23
-6.244e-08
7.809e-08
1.017e-07
1.033e-07
8.313e-08
4.053e-08
3.214e-08
0.000e+00
-2.846e-07
-2.368e-07
-2.956e-07
-2.398e-07
-1.931e-07
-1.888e-07
-1.849e-07
-2.448e-07
-3.101e-07
-1.548e-07
-1.446e-07
-1.230e-07
-1.088e-07
-9.099e-08
-1.328e-07
-9.843e-08
-8.289e-08
-6.146e-08
-3.307e-07
-2.544e-07
-1.837e-07
-1.880e-07
-2.717e-07
-3.608e-07
-1.214e-07
-7.064e-08
-4.968e-08
-1.129e-07
-3.410e-08
-1.791e-09
-4.038e-07
-3.003e-07
-2.015e-07
-1.106e-07
-3.127e-08
3.285e-08
-5.785e-07
-5.353e-07
-6.354e-07
-5.860e-07
-4.882e-07
-5.318e-07
-5.826e-07
-6.444e-07
-7.006e-07
-4.382e-07
-4.743e-07
-3.868e-07
-4.146e-07
-4.481e-07
-5.167e-07
-3.350e-07
-3.545e-07
-3.785e-07
-7.770e-07
-7.136e-07
-6.436e-07
-7.180e-07
-7.967e-07
-8.678e-07
-5.686e-07
-4.901e-07
-5.440e-07
-6.332e-07
-4.101e-07
-4.524e-07
-9.758e-07
-8.967e-07
-8.088e-07
-7.136e-07
-6.130e-07
-5.089e-07
-7.095e-07
-7.056e-07
-7.845e-07
-7.801e-07
-6.941e-07
-7.671e-07
-8.494e-07
-8.641e-07
-8.690e-07
-6.751e-07
-7.456e-07
-6.492e-07
-7.161e-07
-7.919e-07
-8.252e-07
-6.167e-07
-6.791e-07
-7.501e-07
-9.659e-07
-9.604e-07
-9.440e-07
-1.054e-06
-1.072e-06
-1.078e-06
-9.169e-07
-8.796e-07
-9.822e-07
-1.024e-06
-8.327e-07
-9.299e-07
-1.208e-06
-1.202e-06
-1.182e-06
-1.148e-06
-1.103e-06
-1.045e-06
-5.785e-07
-6.167e-07
-6.354e-07
-6.791e-07
-6.492e-07
-7.161e-07
-7.919e-07
-7.501e-07
-7.006e-07
-6.752e-07
-7.456e-07
-6.941e-07
-7.671e-07
-8.494e-07
-8.252e-07
-7.056e-07
-7.801e-07
-8.641e-07
-7.770e-07
-8.327e-07
-8.796e-07
-9.822e-07
-9.300e-07
-8.678e-07
-9.169e-07
-9.440e-07
-1.054e-06
-1.024e-06
-9.604e-07
-1.072e-06
-9.758e-07
-1.045e-06
-1.103e-06
-1.148e-06
-1.182e-06
-1.202e-06
-2.846e-07
-3.351e-07
-2.957e-07
-3.545e-07
-3.868e-07
-4.147e-07
-4.481e-07
-3.785e-07
-3.101e-07
-4.383e-07
-4.743e-07
-4.882e-07
-5.319e-07
-5.826e-07
-5.167e-07
-5.353e-07
-5.860e-07
-6.444e-07
-3.307e-07
-4.101e-07
-4.901e-07
-5.440e-07
-4.524e-07
-3.608e-07
-5.686e-07
-6.436e-07
-7.180e-07
-6.332e-07
-7.136e-07
-7.967e-07
-4.038e-07
-5.089e-07
-6.130e-07
-7.136e-07
-8.088e-07
-8.967e-07
-8.119e-08
-9.845e-08
-6.783e-08
-8.291e-08
-1.231e-07
-1.088e-07
-9.101e-08
-6.149e-08
-4.598e-08
-1.548e-07
-1.446e-07
-1.931e-07
-1.888e-07
-1.849e-07
-1.329e-07
-2.368e-07
-2.398e-07
-2.448e-07
-1.422e-08
-3.412e-08
-7.067e-08
-4.971e-08
-1.816e-09
2.764e-08
-1.215e-07
-1.837e-07
-1.881e-07
-1.129e-07
-2.544e-07
-2.718e-07
7.807e-08
3.282e-08
-3.129e-08
-1.106e-07
-2.015e-07
-3.003e-07
-1.399e-08
-3.284e-08
0.000e+00
-8.566e-08
-5.184e-08
-8.809e-08
-1.087e-07
-8.313e-08
-1.490e-24
-6.030e-08
-8.032e-08
-6.471e-08
-6.938e-08
-5.893e-08
-8.388e-08
-7.058e-08
-6.358e-08
-4.547e-08
0.000e+00
-8.397e-08
-9.195e-08
-3.701e-08
-6.241e-08
0.000e+00
-5.975e-08
-2.897e-08
2.510e-08
-5.087e-09
-1.238e-08
3.684e-08
0.000e+00
3.212e-08
4.059e-08
8.313e-08
1.033e-07
1.016e-07
-1.891e-07
-1.695e-07
-1.513e-07
-1.750e-07
-1.977e-07
-2.220e-07
-1.347e-07
-1.191e-07
-1.334e-07
-1.538e-07
-1.039e-07
-1.131e-07
-2.454e-07
-2.162e-07
-1.887e-07
-1.949e-07
-2.272e-07
-2.620e-07
-1.633e-07
-1.393e-07
-1.388e-07
-1.655e-07
-1.160e-07
-1.144e-07
-2.742e-07
-2.334e-07
-1.958e-07
-1.622e-07
-1.332e-07
-1.087e-07
-3.161e-07
-2.966e-07
-2.756e-07
-3.267e-07
-3.517e-07
-3.750e-07
-2.538e-07
-2.317e-07
-2.739e-07
-3.005e-07
-2.100e-07
-2.475e-07
-4.279e-07
-4.004e-07
-3.707e-07
-4.105e-07
-4.454e-07
-4.776e-07
-3.396e-07
-3.078e-07
-3.361e-07
-3.737e-07
-2.762e-07
-2.985e-07
-5.268e-07
-4.894e-07
-4.487e-07
-4.057e-07
-3.615e-07
-3.173e-07
-3.770e-07
-3.751e-07
-3.697e-07
-4.385e-07
-4.449e-07
-4.471e-07
-3.608e-07
-3.487e-07
-4.136e-07
-4.280e-07
-3.336e-07
-3.958e-07
-5.127e-07
-5.101e-07
-5.026e-07
-5.647e-07
-5.735e-07
-5.764e-07
-4.902e-07
-4.734e-07
-5.307e-07
-5.504e-07
-4.524e-07
-5.063e-07
-6.410e-07
-6.377e-07
-6.276e-07
-6.110e-07
-5.884e-07
-5.601e-07
-3.162e-07
-3.337e-07
-3.487e-07
-4.136e-07
-3.958e-07
-3.750e-07
-3.608e-07
-3.697e-07
-4.385e-07
-4.280e-07
-3.751e-07
-4.449e-07
-4.279e-07
-4.524e-07
-4.734e-07
-5.307e-07
-5.063e-07
-4.776e-07
-4.903e-07
-5.026e-07
-5.647e-07
-5.504e-07
-5.101e-07
-5.735e-07
-5.268e-07
-5.601e-07
-5.884e-07
-6.110e-07
-6.276e-07
-6.377e-07
-1.891e-07
-2.100e-07
-2.318e-07
-2.739e-07
-2.475e-07
-2.220e-07
-2.538e-07
-2.757e-07
-3.267e-07
-3.005e-07
-2.966e-07
-3.517e-07
-2.454e-07
-2.762e-07
-3.078e-07
-3.361e-07
-2.986e-07
-2.620e-07
-3.396e-07
-3.707e-07
-4.105e-07
-3.738e-07
-4.004e-07
-4.454e-07
-2.742e-07
-3.173e-07
-3.615e-07
-4.057e-07
-4.487e-07
-4.894e-07
-8.773e-08
-1.039e-07
-1.192e-07
-1.335e-07
-1.131e-07
-9.130e-08
-1.347e-07
-1.514e-07
-1.751e-07
-1.538e-07
-1.695e-07
-1.978e-07
-9.224e-08
-1.161e-07
-1.393e-07
-1.388e-07
-1.145e-07
-9.143e-08
-1.633e-07
-1.888e-07
-1.950e-07
-1.655e-07
-2.162e-07
-2.273e-07
-8.830e-08
-1.087e-07
-1.332e-07
-1.622e-07
-1.958e-07
-2.334e-07
0.000e+00
-9.506e-09
8.847e-11
1.936e-08
4.179e-08
0.000e+00
-2.629e-08
-4.915e-08
-3.838e-08
-6.540e-09
-6.952e-08
-6.688e-08
0.000e+00
4.032e-08
3.206e-08
2.238e-08
2.556e-08
0.000e+00
-1.799e-09
-3.610e-08
-4.225e-08
-1.128e-08
-6.627e-08
-6.798e-08
0.000e+00
1.814e-08
-1.135e-08
-3.393e-08
-5.311e-08
-7.064e-08
8.000e-08
-7.779e-07
7.299e-08
-6.170e-07
-1.663e-06
-1.338e-06
-1.009e-06
-4.524e-07
6.509e-08
-2.469e-06
-2.001e-06
-3.272e-06
-2.664e-06
-2.057e-06
-1.530e-06
-4.173e-06
-3.411e-06
-4.975e-06
-4.076e-06
-3.183e-06
-2.654e-06
5.510e-08
-2.998e-07
-7.036e-07
-4.512e-07
-1.751e-07
4.139e-08
-1.096e-06
-1.500e-06
-1.037e-06
-7.357e-07
-1.961e-06
-2.369e-06
-1.694e-06
-1.385e-06
2.296e-08
-8.925e-08
-2.649e-07
-9.987e-08
-1.615e-08
9.986e-09
-4.625e-07
-6.835e-07
-3.866e-07
-2.252e-07
-9.471e-07
-1.184e-06
-7.971e-07
-5.972e-07
1.464e-07
-1.298e-06
1.310e-07
-1.267e-06
-2.798e-06
-2.715e-06
-2.594e-06
-1.217e-06
1.173e-07
-4.167e-06
-4.033e-06
-5.530e-06
-5.345e-06
-5.090e-06
-3.846e-06
-7.061e-06
-6.817e-06
-8.422e-06
-8.127e-06
-7.728e-06
-6.486e-06
1.055e-07
-1.144e-06
-2.431e-06
-2.220e-06
-1.047e-06
9.555e-08
-3.598e-06
-4.757e-06
-4.339e-06
-3.284e-06