# vtk DataFile Version 3.0
vtk output
ASCII
DATASET UNSTRUCTURED_GRID
POINTS 4165 double
8.000008e-01 8.750008e-01 0.000000e+00
8.000008e-01 8.750008e-01 -8.300008e-03
8.000009e-01 8.958308e-01 0.000000e+00
8.000009e-01 8.958308e-01 -8.300008e-03
8.000008e-01 8.750008e-01 -1.700002e-02
8.000009e-01 8.958308e-01 -1.700002e-02
8.000009e-01 9.166708e-01 -1.700002e-02
8.000009e-01 9.166708e-01 -8.300008e-03
8.000009e-01 9.166708e-01 0.000000e+00
8.000008e-01 8.750008e-01 -2.500002e-02
8.000009e-01 8.958308e-01 -2.500002e-02
8.000008e-01 8.750008e-01 -3.300003e-02
8.000009e-01 8.958308e-01 -3.300003e-02
8.000009e-01 9.166708e-01 -3.300003e-02
8.000009e-01 9.166708e-01 -2.500002e-02
8.000008e-01 8.750008e-01 -4.200004e-02
8.000009e-01 8.958308e-01 -4.200004e-02
8.000008e-01 8.750008e-01 -5.000005e-02
8.000009e-01 8.958308e-01 -5.000005e-02
8.000009e-01 9.166708e-01 -5.000005e-02
8.000009e-01 9.166708e-01 -4.200004e-02
8.000010e-01 9.375008e-01 0.000000e+00
8.000010e-01 9.375008e-01 -8.300008e-03
8.000010e-01 9.375008e-01 -1.700002e-02
8.000010e-01 9.583308e-01 -1.700002e-02
8.000010e-01 9.583308e-01 -8.300008e-03
8.000010e-01 9.583308e-01 0.000000e+00
8.000010e-01 9.375008e-01 -2.500002e-02
8.000010e-01 9.375008e-01 -3.300003e-02
8.000010e-01 9.583308e-01 -3.300003e-02
8.000010e-01 9.583308e-01 -2.500002e-02
8.000010e-01 9.375008e-01 -4.200004e-02
8.000010e-01 9.375008e-01 -5.000005e-02
8.000010e-01 9.583308e-01 -5.000005e-02
8.000010e-01 9.583308e-01 -4.200004e-02
8.000010e-01 9.791708e-01 0.000000e+00
8.000010e-01 9.791708e-01 -8.300008e-03
8.000010e-01 9.791708e-01 -1.700002e-02
8.000010e-01 1.000001e+00 -1.700002e-02
8.000010e-01 1.000001e+00 -8.300008e-03
8.000010e-01 1.000001e+00 0.000000e+00
8.000010e-01 9.791708e-01 -2.500002e-02
8.000010e-01 9.791708e-01 -3.300003e-02
8.000010e-01 1.000001e+00 -3.300003e-02
8.000010e-01 1.000001e+00 -2.500002e-02
8.000010e-01 9.791708e-01 -4.200004e-02
8.000010e-01 9.791708e-01 -5.000005e-02
8.000010e-01 1.000001e+00 -5.000005e-02
8.000010e-01 1.000001e+00 -4.200004e-02
8.000007e-01 7.500008e-01 0.000000e+00
8.000007e-01 7.500008e-01 -8.300008e-03
8.000008e-01 7.708308e-01 0.000000e+00
8.000008e-01 7.708308e-01 -8.300008e-03
8.000007e-01 7.500008e-01 -1.700002e-02
8.000008e-01 7.708308e-01 -1.700002e-02
8.000008e-01 7.916708e-01 -1.700002e-02
8.000008e-01 7.916708e-01 -8.300008e-03
8.000008e-01 7.916708e-01 0.000000e+00
8.000007e-01 7.500008e-01 -2.500002e-02
8.000008e-01 7.708308e-01 -2.500002e-02
8.000007e-01 7.500008e-01 -3.300003e-02
8.000008e-01 7.708308e-01 -3.300003e-02
8.000008e-01 7.916708e-01 -3.300003e-02
8.000008e-01 7.916708e-01 -2.500002e-02
8.000007e-01 7.500008e-01 -4.200004e-02
8.000008e-01 7.708308e-01 -4.200004e-02
8.000007e-01 7.500008e-01 -5.000005e-02
8.000008e-01 7.708308e-01 -5.000005e-02
8.000008e-01 7.916708e-01 -5.000005e-02
8.000008e-01 7.916708e-01 -4.200004e-02
8.000008e-01 8.125008e-01 0.000000e+00
8.000008e-01 8.125008e-01 -8.300008e-03
8.000008e-01 8.125008e-01 -1.700002e-02
8.000008e-01 8.333308e-01 -1.700002e-02
8.000008e-01 8.333308e-01 -8.300008e-03
8.000008e-01 8.333308e-01 0.000000e+00
8.000008e-01 8.125008e-01 -2.500002e-02
8.000008e-01 8.125008e-01 -3.300003e-02
8.000008e-01 8.333308e-01 -3.300003e-02
8.000008e-01 8.333308e-01 -2.500002e-02
8.000008e-01 8.125008e-01 -4.200004e-02
8.000008e-01 8.125008e-01 -5.000005e-02
8.000008e-01 8.333308e-01 -5.000005e-02
8.000008e-01 8.333308e-01 -4.200004e-02
8.000008e-01 8.541708e-01 0.000000e+00
8.000008e-01 8.541708e-01 -8.300008e-03
8.000008e-01 8.541708e-01 -1.700002e-02
8.000008e-01 8.541708e-01 -2.500002e-02
8.000008e-01 8.541708e-01 -3.300003e-02
8.000008e-01 8.541708e-01 -4.200004e-02
8.000008e-01 8.541708e-01 -5.000005e-02
8.000006e-01 6.250008e-01 0.000000e+00
8.000006e-01 6.250008e-01 -8.300008e-03
8.000007e-01 6.458308e-01 0.000000e+00
8.000007e-01 6.458308e-01 -8.300008e-03
8.000006e-01 6.250008e-01 -1.700002e-02
8.000007e-01 6.458308e-01 -1.700002e-02
8.000007e-01 6.666708e-01 -1.700002e-02
8.000007e-01 6.666708e-01 -8.300008e-03
8.000007e-01 6.666708e-01 0.000000e+00
8.000006e-01 6.250008e-01 -2.500002e-02
8.000007e-01 6.458308e-01 -2.500002e-02
8.000006e-01 6.250008e-01 -3.300003e-02
8.000007e-01 6.458308e-01 -3.300003e-02
8.000007e-01 6.666708e-01 -3.300003e-02
8.000007e-01 6.666708e-01 -2.500002e-02
8.000006e-01 6.250008e-01 -4.200004e-02
8.000007e-01 6.458308e-01 -4.200004e-02
8.000006e-01 6.250008e-01 -5.000005e-02
8.000007e-01 6.458308e-01 -5.000005e-02
8.000007e-01 6.666708e-01 -5.000005e-02
8.000007e-01 6.666708e-01 -4.200004e-02
8.000007e-01 6.875008e-01 0.000000e+00
8.000007e-01 6.875008e-01 -8.300008e-03
8.000007e-01 6.875008e-01 -1.700002e-02
8.000007e-01 7.083308e-01 -1.700002e-02
8.000007e-01 7.083308e-01 -8.300008e-03
8.000007e-01 7.083308e-01 0.000000e+00
8.000007e-01 6.875008e-01 -2.500002e-02
8.000007e-01 6.875008e-01 -3.300003e-02
8.000007e-01 7.083308e-01 -3.300003e-02
8.000007e-01 7.083308e-01 -2.500002e-02
8.000007e-01 6.875008e-01 -4.200004e-02
8.000007e-01 6.875008e-01 -5.000005e-02
8.000007e-01 7.083308e-01 -5.000005e-02
8.000007e-01 7.083308e-01 -4.200004e-02
8.000007e-01 7.291708e-01 0.000000e+00
8.000007e-01 7.291708e-01 -8.300008e-03
8.000007e-01 7.291708e-01 -1.700002e-02
8.000007e-01 7.291708e-01 -2.500002e-02
8.000007e-01 7.291708e-01 -3.300003e-02
8.000007e-01 7.291708e-01 -4.200004e-02
8.000007e-01 7.291708e-01 -5.000005e-02
8.000005e-01 5.000008e-01 0.000000e+00
8.000005e-01 5.000008e-01 -8.300008e-03
8.000005e-01 5.208308e-01 0.000000e+00
8.000005e-01 5.208308e-01 -8.300008e-03
8.000005e-01 5.000008e-01 -1.700002e-02
8.000005e-01 5.208308e-01 -1.700002e-02
8.000005e-01 5.416708e-01 -1.700002e-02
8.000005e-01 5.416708e-01 -8.300008e-03
8.000005e-01 5.416708e-01 0.000000e+00
8.000005e-01 5.000008e-01 -2.500002e-02
8.000005e-01 5.208308e-01 -2.500002e-02
8.000005e-01 5.000008e-01 -3.300003e-02
8.000005e-01 5.208308e-01 -3.300003e-02
8.000005e-01 5.416708e-01 -3.300003e-02
8.000005e-01 5.416708e-01 -2.500002e-02
8.000005e-01 5.000008e-01 -4.200004e-02
8.000005e-01 5.208308e-01 -4.200004e-02
8.000005e-01 5.000008e-01 -5.000005e-02
8.000005e-01 5.208308e-01 -5.000005e-02
8.000005e-01 5.416708e-01 -5.000005e-02
8.000005e-01 5.416708e-01 -4.200004e-02
8.000005e-01 5.625008e-01 0.000000e+00
8.000005e-01 5.625008e-01 -8.300008e-03
8.000005e-01 5.625008e-01 -1.700002e-02
8.000006e-01 5.833308e-01 -1.700002e-02
8.000006e-01 5.833308e-01 -8.300008e-03
8.000006e-01 5.833308e-01 0.000000e+00
8.000005e-01 5.625008e-01 -2.500002e-02
8.000005e-01 5.625008e-01 -3.300003e-02
8.000006e-01 5.833308e-01 -3.300003e-02
8.000006e-01 5.833308e-01 -2.500002e-02
8.000005e-01 5.625008e-01 -4.200004e-02
8.000005e-01 5.625008e-01 -5.000005e-02
8.000006e-01 5.833308e-01 -5.000005e-02
8.000006e-01 5.833308e-01 -4.200004e-02
8.000006e-01 6.041708e-01 0.000000e+00
8.000006e-01 6.041708e-01 -8.300008e-03
8.000006e-01 6.041708e-01 -1.700002e-02
8.000006e-01 6.041708e-01 -2.500002e-02
8.000006e-01 6.041708e-01 -3.300003e-02
8.000006e-01 6.041708e-01 -4.200004e-02
8.000006e-01 6.041708e-01 -5.000005e-02
8.000004e-01 3.750008e-01 0.000000e+00
8.000004e-01 3.750008e-01 -8.300008e-03
8.000004e-01 3.958308e-01 0.000000e+00
8.000004e-01 3.958308e-01 -8.300008e-03
8.000004e-01 3.750008e-01 -1.700002e-02
8.000004e-01 3.958308e-01 -1.700002e-02
8.000004e-01 4.166708e-01 -1.700002e-02
8.000004e-01 4.166708e-01 -8.300008e-03
8.000004e-01 4.166708e-01 0.000000e+00
8.000004e-01 3.750008e-01 -2.500002e-02
8.000004e-01 3.958308e-01 -2.500002e-02
8.000004e-01 3.750008e-01 -3.300003e-02
8.000004e-01 3.958308e-01 -3.300003e-02
8.000004e-01 4.166708e-01 -3.300003e-02
8.000004e-01 4.166708e-01 -2.500002e-02
8.000004e-01 3.750008e-01 -4.200004e-02
8.000004e-01 3.958308e-01 -4.200004e-02
8.000004e-01 3.750008e-01 -5.000005e-02
8.000004e-01 3.958308e-01 -5.000005e-02
8.000004e-01 4.166708e-01 -5.000005e-02
8.000004e-01 4.166708e-01 -4.200004e-02
8.000004e-01 4.375008e-01 0.000000e+00
8.000004e-01 4.375008e-01 -8.300008e-03
8.000004e-01 4.375008e-01 -1.700002e-02
8.000004e-01 4.583308e-01 -1.700002e-02
8.000004e-01 4.583308e-01 -8.300008e-03
8.000004e-01 4.583308e-01 0.000000e+00
8.000004e-01 4.375008e-01 -2.500002e-02
8.000004e-01 4.375008e-01 -3.300003e-02
8.000004e-01 4.583308e-01 -3.300003e-02
8.000004e-01 4.583308e-01 -2.500002e-02
8.000004e-01 4.375008e-01 -4.200004e-02
8.000004e-01 4.375008e-01 -5.000005e-02
8.000004e-01 4.583308e-01 -5.000005e-02
8.000004e-01 4.583308e-01 -4.200004e-02
8.000005e-01 4.791708e-01 0.000000e+00
8.000005e-01 4.791708e-01 -8.300008e-03
8.000005e-01 4.791708e-01 -1.700002e-02
8.000005e-01 4.791708e-01 -2.500002e-02
8.000005e-01 4.791708e-01 -3.300003e-02
8.000005e-01 4.791708e-01 -4.200004e-02
8.000005e-01 4.791708e-01 -5.000005e-02
8.000003e-01 2.500008e-01 0.000000e+00
8.000003e-01 2.500008e-01 -8.300008e-03
8.000003e-01 2.708308e-01 0.000000e+00
8.000003e-01 2.708308e-01 -8.300008e-03
8.000003e-01 2.500008e-01 -1.700002e-02
8.000003e-01 2.708308e-01 -1.700002e-02
8.000003e-01 2.916708e-01 -1.700002e-02
8.000003e-01 2.916708e-01 -8.300008e-03
8.000003e-01 2.916708e-01 0.000000e+00
8.000003e-01 2.500008e-01 -2.500002e-02
8.000003e-01 2.708308e-01 -2.500002e-02
8.000003e-01 2.500008e-01 -3.300003e-02
8.000003e-01 2.708308e-01 -3.300003e-02
8.000003e-01 2.916708e-01 -3.300003e-02
8.000003e-01 2.916708e-01 -2.500002e-02
8.000003e-01 2.500008e-01 -4.200004e-02
8.000003e-01 2.708308e-01 -4.200004e-02
8.000003e-01 2.500008e-01 -5.000005e-02
8.000003e-01 2.708308e-01 -5.000005e-02
8.000003e-01 2.916708e-01 -5.000005e-02
8.000003e-01 2.916708e-01 -4.200004e-02
8.000003e-01 3.125008e-01 0.000000e+00
8.000003e-01 3.125008e-01 -8.300008e-03
8.000003e-01 3.125008e-01 -1.700002e-02
8.000003e-01 3.333308e-01 -1.700002e-02
8.000003e-01 3.333308e-01 -8.300008e-03
8.000003e-01 3.333308e-01 0.000000e+00
8.000003e-01 3.125008e-01 -2.500002e-02
8.000003e-01 3.125008e-01 -3.300003e-02
8.000003e-01 3.333308e-01 -3.300003e-02
8.000003e-01 3.333308e-01 -2.500002e-02
[...]
POINT_DATA 4165
SCALARS u double 1
LOOKUP_TABLE default
1.837e-06
4.422e-06
1.553e-06
3.864e-06
7.642e-06
6.801e-06
5.934e-06
3.282e-06
1.259e-06
1.091e-05
9.819e-06
1.437e-05
1.302e-05
1.166e-05
8.701e-06
1.836e-05
1.674e-05
2.195e-05
2.008e-05
1.822e-05
1.511e-05
9.588e-07
2.688e-06
5.056e-06
4.176e-06
2.061e-06
6.511e-07
7.585e-06
1.033e-05
9.113e-06
6.527e-06
1.355e-05
1.645e-05
1.492e-05
1.216e-05
3.423e-07
1.473e-06
3.393e-06
2.462e-06
7.868e-07
1.061e-07
5.600e-06
8.073e-06
7.054e-06
4.593e-06
1.102e-05
1.370e-05
1.271e-05
1.002e-05
3.313e-06
7.236e-06
3.102e-06
6.838e-06
1.185e-05
1.126e-05
1.062e-05
6.411e-06
2.875e-06
1.641e-05
1.564e-05
2.114e-05
2.019e-05
1.917e-05
1.481e-05
2.657e-05
2.542e-05
3.144e-05
3.011e-05
2.868e-05
2.418e-05
2.634e-06
5.955e-06
9.941e-06
9.216e-06
5.470e-06
2.381e-06
1.392e-05
1.807e-05
1.690e-05
1.297e-05
2.285e-05
2.714e-05
2.550e-05
2.143e-05
2.115e-06
4.959e-06
8.448e-06
1.197e-05
1.566e-05
1.993e-05
2.377e-05
4.249e-06
8.968e-06
4.135e-06
8.759e-06
1.442e-05
1.411e-05
1.376e-05
8.517e-06
4.004e-06
1.974e-05
1.934e-05
2.525e-05
2.475e-05
2.418e-05
1.888e-05
3.154e-05
3.095e-05
3.718e-05
3.649e-05
3.570e-05
3.026e-05
3.855e-06
8.244e-06
1.335e-05
1.290e-05
7.939e-06
3.691e-06
1.836e-05
2.354e-05
2.281e-05
1.777e-05
2.948e-05
3.480e-05
3.379e-05
2.860e-05
3.510e-06
7.603e-06
1.240e-05
1.712e-05
2.202e-05
2.763e-05
3.267e-05
4.568e-06
9.549e-06
4.559e-06
9.533e-06
1.528e-05
1.525e-05
1.518e-05
9.484e-06
4.533e-06
2.085e-05
2.082e-05
2.661e-05
2.657e-05
2.646e-05
2.073e-05
3.319e-05
3.314e-05
3.908e-05
3.903e-05
3.887e-05
3.301e-05
4.488e-06
9.403e-06
1.506e-05
1.490e-05
9.291e-06
4.426e-06
2.058e-05
2.627e-05
2.600e-05
2.036e-05
3.278e-05
3.861e-05
3.824e-05
3.246e-05
4.346e-06
9.145e-06
1.468e-05
2.008e-05
2.566e-05
3.205e-05
3.776e-05
4.250e-06
8.969e-06
4.347e-06
9.146e-06
1.442e-05
1.468e-05
1.490e-05
9.291e-06
4.426e-06
1.974e-05
2.008e-05
2.525e-05
2.566e-05
2.600e-05
2.036e-05
3.154e-05
3.205e-05
3.718e-05
3.776e-05
3.824e-05
3.246e-05
4.488e-06
9.404e-06
1.506e-05
1.518e-05
9.484e-06
4.533e-06
2.058e-05
2.627e-05
2.646e-05
2.073e-05
3.278e-05
3.861e-05
3.887e-05
3.301e-05
4.559e-06
9.533e-06
1.525e-05
2.082e-05
2.657e-05
3.314e-05
3.903e-05
3.314e-06
7.237e-06
3.511e-06
7.604e-06
1.185e-05
1.240e-05
1.290e-05
7.940e-06
3.692e-06
1.641e-05
1.712e-05
2.114e-05
2.202e-05
2.282e-05
1.777e-05
2.658e-05
2.764e-05
3.145e-05
3.267e-05
3.379e-05
2.860e-05
3.856e-06
8.245e-06
1.335e-05
1.376e-05
8.518e-06
4.004e-06
1.836e-05
2.354e-05
2.418e-05
1.888e-05
2.948e-05
3.480e-05
3.570e-05
3.026e-05
4.136e-06
8.759e-06
1.411e-05
1.934e-05
2.475e-05
3.095e-05
3.650e-05
1.841e-06
4.425e-06
2.117e-06
4.961e-06
7.644e-06
8.450e-06
9.217e-06
5.472e-06
2.383e-06
1.092e-05
1.197e-05
1.437e-05
1.566e-05
1.690e-05
1.297e-05
1.836e-05
1.993e-05
2.195e-05
2.377e-05
2.550e-05
2.143e-05
2.636e-06
5.956e-06
9.943e-06
1.062e-05
6.412e-06
2.876e-06
1.392e-05
1.807e-05
1.917e-05
1.481e-05
2.285e-05
2.714e-05
2.868e-05
2.418e-05
3.103e-06
6.839e-06
1.126e-05
1.564e-05
2.019e-05
2.542e-05
3.011e-05
1.062e-07
7.870e-07
3.422e-07
1.473e-06
2.463e-06
3.392e-06
4.178e-06
2.062e-06
6.522e-07
4.594e-06
5.599e-06
7.055e-06
8.072e-06
9.115e-06
6.529e-06
1.002e-05
1.102e-05
1.271e-05
1.370e-05
1.492e-05
1.217e-05
9.598e-07
2.689e-06
5.057e-06
5.935e-06
3.283e-06
1.260e-06
7.586e-06
1.033e-05
1.166e-05
8.701e-06
1.355e-05
1.645e-05
1.821e-05
1.511e-05
1.555e-06
3.866e-06
6.803e-06
9.821e-06
1.302e-05
1.674e-05
2.009e-05
1.833e-06
1.546e-06
1.253e-06
1.247e-06
1.542e-06
1.829e-06
9.517e-07
6.470e-07
6.437e-07
9.471e-07
3.444e-07
2.275e-23
0.000e+00
3.299e-07
1.827e-06
1.539e-06
1.243e-06
1.240e-06
1.538e-06
1.828e-06
9.430e-07
6.377e-07
6.335e-07
9.370e-07
3.228e-07
2.410e-23
0.000e+00
3.207e-07
1.831e-06
1.540e-06
1.240e-06
1.242e-06
1.545e-06
1.837e-06
9.325e-07
6.239e-07
6.183e-07
9.323e-07
3.296e-07
0.000e+00
9.089e-08
3.075e-07
1.847e-06
1.555e-06
1.251e-06
1.266e-06
1.569e-06
1.859e-06
9.367e-07
6.184e-07
6.284e-07
9.510e-07
3.135e-07
0.000e+00
0.000e+00
3.092e-07
1.874e-06
1.587e-06
1.288e-06
1.313e-06
1.607e-06
1.890e-06
9.777e-07
6.497e-07
6.944e-07
1.011e-06
3.159e-07
0.000e+00
2.134e-23
3.413e-07
1.906e-06
1.628e-06
1.340e-06
1.367e-06
1.648e-06
1.919e-06
1.045e-06
7.452e-07
7.903e-07
1.079e-06
4.204e-07
0.000e+00
2.922e-08
4.835e-07
3.310e-06
3.102e-06
3.312e-06
3.105e-06
2.877e-06
2.882e-06
2.886e-06
3.107e-06
3.313e-06
2.638e-06
2.644e-06
2.385e-06
2.392e-06
2.401e-06
2.651e-06
2.117e-06
2.126e-06
2.137e-06
3.312e-06
3.109e-06
2.890e-06
2.893e-06
3.108e-06
3.309e-06
2.657e-06
2.410e-06
2.418e-06
2.663e-06
2.148e-06
2.161e-06
3.303e-06
3.105e-06
2.893e-06
2.889e-06
3.098e-06
3.293e-06
2.666e-06
2.425e-06
2.430e-06
2.666e-06
2.172e-06
2.180e-06
4.226e-06
4.115e-06
4.220e-06
4.110e-06
3.987e-06
3.983e-06
3.977e-06
4.103e-06
4.212e-06
3.842e-06
3.839e-06
3.681e-06
3.680e-06
3.677e-06
3.835e-06
3.504e-06
3.504e-06
3.503e-06
4.202e-06
4.094e-06
3.969e-06
3.958e-06
4.081e-06
4.188e-06
3.829e-06
3.672e-06
3.665e-06
3.820e-06
3.500e-06
3.495e-06
4.171e-06
4.065e-06
3.944e-06
3.925e-06
4.045e-06
4.149e-06
3.807e-06
3.654e-06
3.639e-06
3.790e-06
3.486e-06
3.473e-06
4.536e-06
4.527e-06
4.527e-06
4.519e-06
4.501e-06
4.493e-06
4.483e-06
4.508e-06
4.517e-06
4.458e-06
4.450e-06
4.398e-06
4.390e-06
4.381e-06
4.440e-06
4.320e-06
4.314e-06
4.305e-06
4.503e-06
4.495e-06
4.469e-06
4.453e-06
4.478e-06
4.486e-06
4.427e-06
4.369e-06
4.353e-06
4.411e-06
4.294e-06
4.279e-06
4.465e-06
4.457e-06
4.432e-06
4.407e-06
4.431e-06
4.439e-06
4.391e-06
4.334e-06
4.310e-06
4.366e-06
4.260e-06
4.237e-06
4.227e-06
4.321e-06
4.221e-06
4.314e-06
4.398e-06
4.391e-06
4.381e-06
4.305e-06
4.213e-06
4.458e-06
4.451e-06
4.501e-06
4.493e-06
4.483e-06
4.440e-06
4.527e-06
4.519e-06
4.508e-06
4.202e-06
4.294e-06
4.369e-06
4.354e-06
4.279e-06
4.189e-06
4.428e-06
4.470e-06
4.453e-06
4.412e-06
4.495e-06
4.478e-06
4.171e-06
4.261e-06
4.334e-06
4.310e-06
4.238e-06
4.149e-06
4.391e-06
4.432e-06
4.407e-06
4.367e-06
4.457e-06
4.431e-06
3.312e-06
3.505e-06
3.313e-06
3.505e-06
3.682e-06
3.680e-06
3.678e-06
3.504e-06
3.314e-06
3.843e-06
3.840e-06
3.987e-06
3.983e-06
3.978e-06
3.836e-06
4.115e-06
4.110e-06
4.104e-06
3.313e-06
3.501e-06
3.673e-06
3.666e-06
3.496e-06
3.310e-06
3.830e-06
3.970e-06
3.959e-06
3.820e-06
4.094e-06
4.082e-06
3.304e-06
3.487e-06
3.655e-06
3.640e-06
3.474e-06
3.294e-06
3.808e-06
3.945e-06
3.926e-06
3.790e-06
4.066e-06
4.045e-06
1.839e-06
2.119e-06
1.848e-06
2.127e-06
2.386e-06
2.394e-06
2.402e-06
2.138e-06
1.860e-06
2.640e-06
2.646e-06
2.879e-06
2.883e-06
2.888e-06
2.652e-06
3.103e-06
3.106e-06
3.108e-06
1.875e-06
2.150e-06
2.411e-06
2.420e-06
2.162e-06
1.891e-06
2.659e-06
2.892e-06
2.894e-06
2.664e-06
3.110e-06
3.110e-06
1.907e-06
2.173e-06
2.427e-06
2.431e-06
2.182e-06
1.921e-06
2.667e-06
2.894e-06
2.890e-06
2.667e-06
3.106e-06
3.099e-06
9.105e-08
3.074e-07
0.000e+00
3.134e-07
6.193e-07
6.194e-07
6.294e-07
3.090e-07
0.000e+00
9.332e-07
9.376e-07
1.243e-06
1.252e-06
1.267e-06
9.518e-07
1.547e-06
1.556e-06
1.570e-06
0.000e+00
3.157e-07
6.507e-07
6.954e-07
3.410e-07
0.000e+00
9.785e-07
1.288e-06
1.314e-06
1.012e-06
1.588e-06
1.608e-06
0.000e+00
4.202e-07
7.462e-07
7.913e-07
4.833e-07
2.922e-08
1.046e-06
1.341e-06
1.367e-06
1.080e-06
1.629e-06
1.649e-06
3.310e-06
3.098e-06
2.871e-06
2.869e-06
3.096e-06
3.308e-06
2.630e-06
2.376e-06
2.374e-06
2.628e-06
2.110e-06
2.107e-06
3.307e-06
3.096e-06
2.869e-06
2.870e-06
3.097e-06
3.307e-06
2.628e-06
2.373e-06
2.375e-06
2.630e-06
2.106e-06
2.107e-06
3.309e-06
3.099e-06
2.873e-06
2.633e-06
2.379e-06
2.111e-06
4.245e-06
4.131e-06
3.999e-06
3.996e-06
4.127e-06
4.241e-06
3.852e-06
3.687e-06
3.684e-06
3.849e-06
3.506e-06
3.504e-06
4.237e-06
4.124e-06
3.994e-06
3.992e-06
4.121e-06
4.234e-06
3.847e-06
3.683e-06
3.682e-06
3.845e-06
3.503e-06
3.503e-06
4.230e-06
4.118e-06
3.989e-06
3.844e-06
3.682e-06
3.503e-06
4.563e-06
4.554e-06
4.527e-06
4.523e-06
4.549e-06
4.558e-06
4.483e-06
4.421e-06
4.417e-06
4.478e-06
4.342e-06
4.337e-06
4.553e-06
4.544e-06
4.518e-06
4.513e-06
4.539e-06
4.548e-06
4.474e-06
4.413e-06
4.408e-06
4.469e-06
4.334e-06
4.330e-06
4.543e-06
4.534e-06
4.508e-06
4.464e-06
4.404e-06
4.326e-06
4.245e-06
4.342e-06
4.421e-06
4.417e-06
4.338e-06
4.241e-06
4.483e-06
4.527e-06
4.523e-06
4.479e-06
4.554e-06
4.549e-06
4.238e-06
4.334e-06
4.413e-06
4.409e-06
4.330e-06
4.235e-06
4.474e-06
4.518e-06
4.513e-06
4.470e-06
4.544e-06
4.540e-06
4.231e-06
4.326e-06
4.404e-06
4.465e-06
4.508e-06
4.534e-06
3.311e-06
3.507e-06
3.688e-06
3.685e-06
3.505e-06
3.309e-06
3.852e-06
4.000e-06
3.997e-06
3.849e-06
4.131e-06
4.128e-06
3.308e-06
3.504e-06
3.684e-06
3.683e-06
3.504e-06
3.309e-06
3.847e-06
3.994e-06
3.992e-06
3.846e-06
4.125e-06
4.122e-06
3.310e-06
3.504e-06
3.683e-06
3.845e-06
3.990e-06
4.119e-06
1.835e-06
2.112e-06
2.378e-06
2.376e-06
2.109e-06
1.831e-06
2.632e-06
2.872e-06
2.870e-06
2.630e-06
3.099e-06
3.097e-06
1.829e-06
2.108e-06
2.375e-06
2.377e-06
2.109e-06
1.830e-06
2.630e-06
2.870e-06
2.872e-06
2.631e-06
3.097e-06
3.098e-06
1.833e-06
2.113e-06
2.381e-06
2.635e-06
2.875e-06
3.100e-06
2.275e-23
3.443e-07
6.480e-07
6.448e-07
3.298e-07
0.000e+00
9.527e-07
1.254e-06
1.248e-06
9.481e-07
1.549e-06
1.544e-06
0.000e+00
3.226e-07
6.388e-07
6.345e-07
3.206e-07
0.000e+00
9.440e-07
1.244e-06
1.241e-06
9.379e-07
1.541e-06
1.540e-06
0.000e+00
3.295e-07
6.250e-07
9.334e-07
1.240e-06
1.541e-06
1.870e-06
3.465e-06
1.590e-06
3.120e-06
5.641e-06
5.226e-06
4.756e-06
2.739e-06
1.299e-06
7.950e-06
7.469e-06
1.044e-05
9.892e-06
9.272e-06
6.923e-06
1.334e-05
1.273e-05
1.597e-05
1.529e-05
1.452e-05
1.203e-05
9.973e-07
2.323e-06
4.231e-06
3.641e-06
1.842e-06
6.825e-07
6.313e-06
8.593e-06
7.909e-06
5.667e-06
1.128e-05
1.371e-05
1.296e-05
1.056e-05
3.604e-07
1.360e-06
3.076e-06
2.341e-06
7.639e-07
1.148e-07
5.057e-06
7.277e-06
6.602e-06
4.326e-06
9.925e-06
1.233e-05
1.179e-05
9.322e-06
3.294e-06
5.036e-06
3.090e-06
4.822e-06
7.383e-06
7.156e-06
6.909e-06
4.590e-06
2.871e-06
9.857e-06
9.619e-06
1.252e-05
1.226e-05
1.199e-05
9.356e-06
1.562e-05
1.535e-05
1.841e-05
1.814e-05
1.782e-05
1.506e-05
2.640e-06
4.340e-06
6.638e-06
6.341e-06
4.071e-06
2.395e-06
9.065e-06
1.167e-05
1.132e-05
8.739e-06
1.472e-05
1.746e-05
1.704e-05
1.433e-05
2.139e-06
3.781e-06
6.010e-06
8.370e-06
1.091e-05
1.387e-05
1.655e-05
4.203e-06
5.979e-06
4.092e-06
5.864e-06
8.363e-06
8.243e-06
8.106e-06
5.731e-06
3.963e-06
1.087e-05
1.075e-05
1.357e-05
1.344e-05
1.329e-05
1.061e-05
1.671e-05
1.658e-05
1.954e-05
1.941e-05
1.925e-05
1.643e-05
3.819e-06
5.582e-06
7.951e-06
7.779e-06
5.416e-06
3.659e-06
1.045e-05
1.313e-05
1.295e-05
1.027e-05
1.626e-05
1.908e-05
1.888e-05
1.607e-05
3.484e-06
5.234e-06
7.590e-06
1.007e-05
1.274e-05
1.585e-05
1.866e-05
4.516e-06
6.303e-06
4.508e-06
6.294e-06
8.698e-06
8.689e-06
8.661e-06
6.267e-06
4.481e-06
1.122e-05
1.121e-05
1.392e-05
1.391e-05
1.388e-05
1.118e-05
1.708e-05
1.707e-05
1.992e-05
1.991e-05
1.988e-05
1.704e-05
4.438e-06
6.222e-06
8.614e-06
8.548e-06
6.158e-06
4.377e-06
1.113e-05
1.383e-05
1.376e-05
1.106e-05
1.699e-05
1.983e-05
1.975e-05
1.691e-05
4.298e-06
6.077e-06
8.464e-06
1.098e-05
1.368e-05
1.682e-05
1.966e-05
4.204e-06
5.979e-06
4.299e-06
6.078e-06
8.363e-06
8.465e-06
8.548e-06
6.159e-06
4.377e-06
1.087e-05
1.098e-05
1.357e-05
1.368e-05
1.376e-05
1.106e-05
1.671e-05
1.682e-05
1.954e-05
1.966e-05
1.975e-05
1.691e-05
4.438e-06
6.222e-06
8.614e-06
8.661e-06
6.267e-06
4.481e-06
1.113e-05
1.383e-05
1.388e-05
1.118e-05
1.699e-05
1.983e-05
1.988e-05
1.704e-05
4.508e-06
6.294e-06
8.689e-06
1.121e-05
1.391e-05
1.707e-05
1.991e-05
3.295e-06
5.037e-06
3.485e-06
5.235e-06
7.383e-06
7.591e-06
7.780e-06
5.417e-06
3.660e-06
9.858e-06
1.007e-05
1.252e-05
1.274e-05
1.295e-05
1.027e-05
1.562e-05
1.585e-05
1.841e-05
1.866e-05
1.888e-05
1.607e-05
3.820e-06
5.582e-06
7.952e-06
8.106e-06
5.731e-06
3.964e-06
1.045e-05
1.313e-05
1.329e-05
1.061e-05
1.626e-05
1.908e-05
1.925e-05
1.643e-05
4.092e-06
5.864e-06
8.243e-06
1.075e-05
1.344e-05
1.658e-05
1.941e-05
1.871e-06
3.465e-06
2.139e-06
3.781e-06
5.642e-06
6.011e-06
6.341e-06
4.072e-06
2.396e-06
7.950e-06
8.371e-06
1.044e-05
1.091e-05
1.132e-05
8.739e-06
1.334e-05
1.387e-05
1.597e-05
1.655e-05
1.704e-05
1.433e-05
2.640e-06
4.341e-06
6.639e-06
6.909e-06
4.591e-06
2.872e-06
9.066e-06
1.167e-05
1.199e-05
9.357e-06
1.472e-05
1.746e-05
1.782e-05
1.506e-05
3.090e-06
4.822e-06
7.157e-06
9.620e-06
1.227e-05
1.535e-05
1.814e-05
1.150e-07
7.641e-07
3.602e-07
1.359e-06
2.342e-06
3.076e-06
3.642e-06
1.843e-06
6.833e-07
4.327e-06
5.056e-06
6.602e-06
7.276e-06
7.910e-06
5.669e-06
9.323e-06
9.924e-06
1.179e-05
1.233e-05
1.296e-05
1.056e-05
9.977e-07
2.323e-06
4.231e-06
4.756e-06
2.739e-06
1.299e-06
6.313e-06
8.593e-06
9.272e-06
6.923e-06
1.128e-05
1.372e-05
1.452e-05
1.203e-05
1.591e-06
3.121e-06
5.226e-06
7.469e-06
9.892e-06
1.273e-05
1.529e-05
1.862e-06
1.582e-06
1.291e-06
1.284e-06
1.575e-06
1.855e-06
9.888e-07
6.774e-07
6.743e-07
9.830e-07
3.650e-07
0.000e+00
0.000e+00
3.473e-07
1.849e-06
1.568e-06
1.277e-06
1.271e-06
1.562e-06
1.843e-06
9.777e-07
6.675e-07
6.629e-07
9.703e-07
3.407e-07
0.000e+00
0.000e+00
3.396e-07
1.838e-06
1.557e-06
1.265e-06
1.260e-06
1.552e-06
1.835e-06
9.638e-07
6.543e-07
6.490e-07
9.595e-07
3.482e-07
0.000e+00
1.018e-07
3.300e-07
1.832e-06
1.549e-06
1.257e-06
1.254e-06
1.547e-06
1.830e-06
9.554e-07
6.465e-07
6.480e-07
9.540e-07
3.418e-07
2.516e-23
0.000e+00
3.303e-07
1.830e-06
1.546e-06
1.253e-06
1.254e-06
1.547e-06
1.831e-06
9.544e-07
6.472e-07
6.498e-07
9.538e-07
3.278e-07
-6.121e-23
2.400e-23
3.315e-07
1.834e-06
1.549e-06
1.256e-06
9.547e-07
6.491e-07
3.487e-07
0.000e+00
3.285e-06
3.076e-06
3.287e-06
3.078e-06
2.853e-06
2.854e-06
2.856e-06
3.080e-06
3.290e-06
2.617e-06
2.617e-06
2.368e-06
2.367e-06
2.367e-06
2.618e-06
2.107e-06
2.105e-06
2.104e-06
3.295e-06
3.084e-06
2.859e-06
2.863e-06
3.089e-06
3.300e-06
2.620e-06
2.368e-06
2.371e-06
2.624e-06
2.105e-06
2.107e-06
3.307e-06
3.095e-06
2.869e-06
2.629e-06
2.375e-06
2.110e-06
4.212e-06
4.098e-06
4.217e-06
4.103e-06
3.967e-06
3.972e-06
3.977e-06
4.108e-06
4.223e-06
3.821e-06
3.825e-06
3.657e-06
3.661e-06
3.666e-06
3.830e-06
3.479e-06
3.482e-06
3.486e-06
4.229e-06
4.115e-06
3.983e-06
3.990e-06
4.121e-06
4.236e-06
3.835e-06
3.671e-06
3.677e-06
3.842e-06
3.491e-06
3.497e-06
4.243e-06
4.128e-06
3.997e-06
3.849e-06
3.684e-06
3.503e-06
4.530e-06
4.521e-06
4.535e-06
4.526e-06
4.494e-06
4.500e-06
4.506e-06
4.533e-06
4.542e-06
4.450e-06
4.455e-06
4.388e-06
4.393e-06
4.399e-06
4.461e-06
4.308e-06
4.314e-06
4.320e-06
4.548e-06
4.539e-06
4.513e-06
4.519e-06
4.546e-06
4.555e-06
4.468e-06
4.406e-06
4.413e-06
4.475e-06
4.326e-06
4.333e-06
4.562e-06
4.553e-06
4.526e-06
4.482e-06
4.420e-06
4.340e-06
4.212e-06
4.309e-06
4.217e-06
4.314e-06
4.388e-06
4.394e-06
4.400e-06
4.320e-06
4.223e-06
4.450e-06
4.455e-06
4.494e-06
4.500e-06
4.506e-06
4.462e-06
4.521e-06
4.526e-06
4.533e-06
4.229e-06
4.327e-06
4.406e-06
4.413e-06
4.333e-06
4.236e-06
4.468e-06
4.513e-06
4.520e-06
4.475e-06
4.539e-06
4.546e-06
4.243e-06
4.340e-06
4.420e-06
4.482e-06
4.526e-06
4.553e-06
3.285e-06
3.479e-06
3.288e-06
3.482e-06
3.658e-06
3.662e-06
3.666e-06
3.487e-06
3.291e-06
3.821e-06
3.825e-06
3.968e-06
3.973e-06
3.978e-06
3.830e-06
4.098e-06
4.103e-06
4.109e-06
3.296e-06
3.492e-06
3.672e-06
3.678e-06
3.497e-06
3.301e-06
3.836e-06
3.984e-06
3.991e-06
3.842e-06
4.115e-06
4.122e-06
3.308e-06
3.504e-06
3.685e-06
3.849e-06
3.997e-06
4.129e-06
1.836e-06
2.108e-06
1.833e-06
2.106e-06
2.369e-06
2.368e-06
2.368e-06
2.106e-06
1.832e-06
2.618e-06
2.618e-06
2.854e-06
2.855e-06
2.857e-06
2.619e-06
3.077e-06
3.079e-06
3.081e-06
1.832e-06
2.106e-06
2.370e-06
2.373e-06
2.108e-06
1.833e-06
2.622e-06
2.860e-06
2.864e-06
2.625e-06
3.085e-06
3.090e-06
1.836e-06
2.112e-06
2.377e-06
2.630e-06
2.870e-06
3.096e-06
1.019e-07
3.298e-07
0.000e+00
3.416e-07
6.500e-07
6.475e-07
6.490e-07
3.301e-07
2.483e-23
9.602e-07
9.562e-07
1.260e-06
1.257e-06
1.255e-06
9.548e-07
1.553e-06
1.550e-06
1.548e-06
0.000e+00
3.276e-07
6.482e-07
6.508e-07
3.313e-07
0.000e+00
9.553e-07
1.254e-06
1.254e-06
9.547e-07
1.548e-06
1.548e-06
0.000e+00
3.486e-07
6.502e-07
9.556e-07
1.256e-06
1.551e-06
3.290e-06
3.085e-06
2.866e-06
2.861e-06
3.081e-06
3.286e-06
2.633e-06
2.388e-06
2.382e-06
2.628e-06
2.131e-06
2.124e-06
3.284e-06
3.078e-06
2.857e-06
2.855e-06
3.076e-06
3.283e-06
2.624e-06
2.377e-06
2.373e-06
2.620e-06
2.119e-06
2.114e-06
3.283e-06
3.075e-06
2.853e-06
2.618e-06
2.370e-06
2.110e-06
4.202e-06
4.090e-06
3.961e-06
3.960e-06
4.089e-06
4.201e-06
3.816e-06
3.656e-06
3.654e-06
3.815e-06
3.480e-06
3.477e-06
4.202e-06
4.089e-06
3.960e-06
3.961e-06
4.091e-06
4.204e-06
3.814e-06
3.653e-06
3.653e-06
3.815e-06
3.476e-06
3.476e-06
4.207e-06
4.094e-06
3.964e-06
3.817e-06
3.655e-06
3.477e-06
4.515e-06
4.507e-06
4.480e-06
4.481e-06
4.507e-06
4.516e-06
4.437e-06
4.375e-06
4.375e-06
4.437e-06
4.297e-06
4.297e-06
4.518e-06
4.509e-06
4.482e-06
4.485e-06
4.512e-06
4.521e-06
4.438e-06
4.377e-06
4.379e-06
4.441e-06
4.298e-06
4.300e-06
4.525e-06
4.516e-06
4.489e-06
4.445e-06
4.383e-06
4.304e-06
4.202e-06
4.297e-06
4.376e-06
4.376e-06
4.297e-06
4.202e-06
4.437e-06
4.480e-06
4.481e-06
4.437e-06
4.507e-06
4.507e-06
4.203e-06
4.298e-06
4.377e-06
4.380e-06
4.301e-06
4.205e-06
4.438e-06
4.482e-06
4.485e-06
4.441e-06
4.509e-06
4.512e-06
4.208e-06
4.304e-06
4.383e-06
4.445e-06
4.489e-06
4.516e-06
3.290e-06
3.481e-06
3.657e-06
3.654e-06
3.478e-06
3.287e-06
3.817e-06
3.961e-06
3.960e-06
3.815e-06
4.090e-06
4.089e-06
3.285e-06
3.477e-06
3.654e-06
3.654e-06
3.476e-06
3.284e-06
3.815e-06
3.961e-06
3.962e-06
3.816e-06
4.090e-06
4.092e-06
3.284e-06
3.477e-06
3.656e-06
3.818e-06
3.964e-06
4.095e-06
1.863e-06
2.132e-06
2.389e-06
2.383e-06
2.125e-06
1.856e-06
2.634e-06
2.866e-06
2.862e-06
2.629e-06
3.085e-06
3.081e-06
1.850e-06
2.120e-06
2.378e-06
2.374e-06
2.115e-06
1.844e-06
2.625e-06
2.858e-06
2.856e-06
2.621e-06
3.079e-06
3.077e-06
1.839e-06
2.111e-06
2.371e-06
2.619e-06
2.854e-06
3.076e-06
0.000e+00
3.647e-07
6.782e-07
6.751e-07
3.470e-07
0.000e+00
9.893e-07
1.291e-06
1.284e-06
9.835e-07
1.583e-06
1.575e-06
0.000e+00
3.404e-07
6.684e-07
6.638e-07
3.394e-07
0.000e+00
9.783e-07
1.277e-06
1.271e-06
9.710e-07
1.569e-06
1.563e-06
0.000e+00
3.480e-07
6.552e-07
9.645e-07
1.265e-06
1.558e-06
1.870e-06
3.465e-06
1.591e-06
3.121e-06
5.642e-06
5.226e-06
4.757e-06
2.739e-06
1.299e-06
7.951e-06
7.469e-06
1.044e-05
9.892e-06
9.272e-06
6.923e-06
1.334e-05
1.273e-05
1.597e-05
1.529e-05
1.452e-05
1.203e-05
9.975e-07
2.323e-06
4.231e-06
3.641e-06
1.842e-06
6.827e-07
6.313e-06
8.593e-06
7.909e-06
5.668e-06
1.128e-05
1.371e-05
1.296e-05
1.056e-05
3.605e-07
1.360e-06
3.076e-06
2.341e-06
7.639e-07
1.149e-07
5.057e-06
7.277e-06
6.602e-06
4.326e-06
9.925e-06
1.233e-05
1.179e-05
9.322e-06
3.294e-06
5.036e-06
3.090e-06
4.822e-06
7.383e-06
7.157e-06
6.909e-06
4.590e-06
2.872e-06
9.858e-06
9.620e-06
1.252e-05
1.227e-05
1.199e-05
9.357e-06
1.562e-05
1.535e-05
1.841e-05
1.814e-05
1.782e-05
1.506e-05
2.640e-06
4.341e-06
6.639e-06
6.341e-06
4.072e-06
2.396e-06
9.065e-06
1.167e-05
1.132e-05
8.739e-06
1.472e-05
1.746e-05
1.704e-05
1.433e-05
2.139e-06
3.781e-06
6.011e-06
8.370e-06
1.091e-05
1.387e-05
1.655e-05
4.204e-06
5.979e-06
4.092e-06
5.864e-06
8.363e-06
8.243e-06
8.106e-06
5.731e-06
3.964e-06
1.087e-05
1.075e-05
1.357e-05
1.344e-05
1.329e-05
1.061e-05
1.671e-05
1.658e-05
1.954e-05
1.941e-05
1.925e-05
1.643e-05
3.819e-06
5.582e-06
7.952e-06
7.780e-06
5.417e-06
3.660e-06
1.045e-05
1.313e-05
1.295e-05
1.027e-05
1.626e-05
1.908e-05
1.888e-05
1.607e-05
3.484e-06
5.235e-06
7.590e-06
1.007e-05
1.274e-05
1.585e-05
1.866e-05
4.516e-06
6.303e-06
4.508e-06
6.294e-06
8.698e-06
8.689e-06
8.661e-06
6.267e-06
4.481e-06
1.122e-05
1.121e-05
1.392e-05
1.391e-05
1.388e-05
1.118e-05
1.708e-05
1.707e-05
1.992e-05
1.991e-05
1.988e-05
1.704e-05
4.438e-06
6.222e-06
8.614e-06
8.548e-06
6.159e-06
4.377e-06
1.113e-05
1.383e-05
1.376e-05
1.106e-05
1.699e-05
1.983e-05
1.975e-05
1.691e-05
4.299e-06
6.078e-06
8.464e-06
1.098e-05
1.368e-05
1.682e-05
1.966e-05
4.204e-06
5.979e-06
4.299e-06
6.078e-06
8.363e-06
8.465e-06