# vtk DataFile Version 3.0
vtk output
ASCII
DATASET UNSTRUCTURED_GRID
POINTS 833 double
5.000000e-01 5.000000e-07 0.000000e+00
5.000000e-01 5.000000e-07 3.130003e-03
5.000001e-01 3.120050e-02 0.000000e+00
5.000001e-01 3.120050e-02 3.130003e-03
5.000000e-01 5.000000e-07 6.250006e-03
5.000001e-01 3.120050e-02 6.250006e-03
5.000001e-01 6.250050e-02 6.250006e-03
5.000001e-01 6.250050e-02 3.130003e-03
5.000001e-01 6.250050e-02 0.000000e+00
5.000000e-01 5.000000e-07 9.380009e-03
5.000001e-01 3.120050e-02 9.380009e-03
5.000000e-01 5.000000e-07 1.250001e-02
5.000001e-01 3.120050e-02 1.250001e-02
5.000001e-01 6.250050e-02 1.250001e-02
5.000001e-01 6.250050e-02 9.380009e-03
5.000000e-01 5.000000e-07 1.560002e-02
5.000001e-01 3.120050e-02 1.560002e-02
5.000000e-01 5.000000e-07 1.880002e-02
5.000001e-01 3.120050e-02 1.880002e-02
5.000001e-01 6.250050e-02 1.880002e-02
5.000001e-01 6.250050e-02 1.560002e-02
5.000000e-01 5.000000e-07 2.190002e-02
5.000001e-01 3.120050e-02 2.190002e-02
5.000000e-01 5.000000e-07 2.500002e-02
5.000001e-01 3.120050e-02 2.500002e-02
5.000001e-01 6.250050e-02 2.500002e-02
5.000001e-01 6.250050e-02 2.190002e-02
5.000000e-01 5.000000e-07 2.810003e-02
5.000001e-01 3.120050e-02 2.810003e-02
5.000000e-01 5.000000e-07 3.120003e-02
5.000001e-01 3.120050e-02 3.120003e-02
5.000001e-01 6.250050e-02 3.120003e-02
5.000001e-01 6.250050e-02 2.810003e-02
5.000000e-01 5.000000e-07 3.440003e-02
5.000001e-01 3.120050e-02 3.440003e-02
5.000000e-01 5.000000e-07 3.750004e-02
5.000001e-01 3.120050e-02 3.750004e-02
5.000001e-01 6.250050e-02 3.750004e-02
5.000001e-01 6.250050e-02 3.440003e-02
5.000000e-01 5.000000e-07 4.060004e-02
5.000001e-01 3.120050e-02 4.060004e-02
5.000000e-01 5.000000e-07 4.380004e-02
5.000001e-01 3.120050e-02 4.370004e-02
5.000001e-01 6.250050e-02 4.370004e-02
5.000001e-01 6.250050e-02 4.060004e-02
5.000000e-01 5.000000e-07 4.690005e-02
5.000001e-01 3.120050e-02 4.690005e-02
5.000000e-01 5.000000e-07 5.000005e-02
5.000001e-01 3.120050e-02 5.000005e-02
5.000001e-01 6.250050e-02 5.000005e-02
5.000001e-01 6.250050e-02 4.690005e-02
5.000001e-01 9.380050e-02 0.000000e+00
5.000001e-01 9.380050e-02 3.130003e-03
5.000001e-01 9.380050e-02 6.250006e-03
5.000001e-01 1.250005e-01 6.250006e-03
5.000001e-01 1.250005e-01 3.130003e-03
5.000001e-01 1.250005e-01 0.000000e+00
5.000001e-01 9.380050e-02 9.380009e-03
5.000001e-01 9.380050e-02 1.250001e-02
5.000001e-01 1.250005e-01 1.250001e-02
5.000001e-01 1.250005e-01 9.380009e-03
5.000001e-01 9.380050e-02 1.560002e-02
5.000001e-01 9.380050e-02 1.880002e-02
5.000001e-01 1.250005e-01 1.870002e-02
5.000001e-01 1.250005e-01 1.560002e-02
5.000001e-01 9.380050e-02 2.190002e-02
5.000001e-01 9.380050e-02 2.500002e-02
5.000001e-01 1.250005e-01 2.500002e-02
5.000001e-01 1.250005e-01 2.190002e-02
5.000001e-01 9.380050e-02 2.810003e-02
5.000001e-01 9.380050e-02 3.120003e-02
5.000001e-01 1.250005e-01 3.120003e-02
5.000001e-01 1.250005e-01 2.810003e-02
5.000001e-01 9.380050e-02 3.440003e-02
5.000001e-01 9.370050e-02 3.750004e-02
5.000001e-01 1.250005e-01 3.750004e-02
5.000001e-01 1.250005e-01 3.440003e-02
5.000001e-01 9.370050e-02 4.060004e-02
5.000001e-01 9.370050e-02 4.370004e-02
5.000001e-01 1.250005e-01 4.370004e-02
5.000001e-01 1.250005e-01 4.060004e-02
5.000001e-01 9.380050e-02 4.690005e-02
5.000001e-01 9.380050e-02 5.000005e-02
5.000001e-01 1.250005e-01 5.000005e-02
5.000001e-01 1.250005e-01 4.690005e-02
5.000002e-01 1.562505e-01 0.000000e+00
5.000002e-01 1.562505e-01 3.130003e-03
5.000002e-01 1.562505e-01 6.250006e-03
5.000002e-01 1.875005e-01 6.250006e-03
5.000002e-01 1.875005e-01 3.130003e-03
5.000002e-01 1.875005e-01 0.000000e+00
5.000002e-01 1.562505e-01 9.380009e-03
5.000002e-01 1.562505e-01 1.250001e-02
5.000002e-01 1.875005e-01 1.250001e-02
5.000002e-01 1.875005e-01 9.380009e-03
5.000002e-01 1.562505e-01 1.560002e-02
5.000002e-01 1.562505e-01 1.880002e-02
5.000002e-01 1.875005e-01 1.880002e-02
5.000002e-01 1.875005e-01 1.560002e-02
5.000002e-01 1.562505e-01 2.190002e-02
5.000002e-01 1.562505e-01 2.500002e-02
5.000002e-01 1.875005e-01 2.500002e-02
5.000002e-01 1.875005e-01 2.190002e-02
5.000002e-01 1.562505e-01 2.810003e-02
5.000002e-01 1.562505e-01 3.120003e-02
5.000002e-01 1.875005e-01 3.120003e-02
5.000002e-01 1.875005e-01 2.810003e-02
5.000002e-01 1.562505e-01 3.440003e-02
5.000002e-01 1.562505e-01 3.750004e-02
5.000002e-01 1.875005e-01 3.750004e-02
5.000002e-01 1.875005e-01 3.440003e-02
5.000002e-01 1.562505e-01 4.060004e-02
5.000002e-01 1.562505e-01 4.370004e-02
5.000002e-01 1.875005e-01 4.370004e-02
5.000002e-01 1.875005e-01 4.060004e-02
5.000002e-01 1.562505e-01 4.690005e-02
5.000002e-01 1.562505e-01 5.000005e-02
5.000002e-01 1.875005e-01 5.000005e-02
5.000002e-01 1.875005e-01 4.690005e-02
5.000002e-01 2.187505e-01 0.000000e+00
5.000002e-01 2.187505e-01 3.130003e-03
5.000002e-01 2.187505e-01 6.250006e-03
5.000002e-01 2.500005e-01 6.250006e-03
5.000002e-01 2.500005e-01 3.130003e-03
5.000002e-01 2.500005e-01 0.000000e+00
5.000002e-01 2.187505e-01 9.380009e-03
5.000002e-01 2.187505e-01 1.250001e-02
5.000002e-01 2.500005e-01 1.250001e-02
5.000002e-01 2.500005e-01 9.380009e-03
5.000002e-01 2.187505e-01 1.560002e-02
5.000002e-01 2.187505e-01 1.880002e-02
5.000002e-01 2.500005e-01 1.880002e-02
5.000002e-01 2.500005e-01 1.560002e-02
5.000002e-01 2.187505e-01 2.190002e-02
5.000002e-01 2.187505e-01 2.500002e-02
5.000002e-01 2.500005e-01 2.500002e-02
5.000002e-01 2.500005e-01 2.190002e-02
5.000002e-01 2.187505e-01 2.810003e-02
5.000002e-01 2.187505e-01 3.120003e-02
5.000002e-01 2.500005e-01 3.120003e-02
5.000002e-01 2.500005e-01 2.810003e-02
5.000002e-01 2.187505e-01 3.440003e-02
5.000002e-01 2.187505e-01 3.750004e-02
5.000002e-01 2.500005e-01 3.750004e-02
5.000002e-01 2.500005e-01 3.440003e-02
5.000002e-01 2.187505e-01 4.060004e-02
5.000002e-01 2.187505e-01 4.380004e-02
5.000002e-01 2.500005e-01 4.380004e-02
5.000002e-01 2.500005e-01 4.060004e-02
5.000002e-01 2.187505e-01 4.690005e-02
5.000002e-01 2.187505e-01 5.000005e-02
5.000002e-01 2.500005e-01 5.000005e-02
5.000002e-01 2.500005e-01 4.690005e-02
5.000003e-01 2.812505e-01 0.000000e+00
5.000003e-01 2.812505e-01 3.130003e-03
5.000003e-01 2.812505e-01 6.250006e-03
5.000003e-01 3.125005e-01 6.250006e-03
5.000003e-01 3.125005e-01 3.130003e-03
5.000003e-01 3.125005e-01 0.000000e+00
5.000003e-01 2.812505e-01 9.380009e-03
5.000003e-01 2.812505e-01 1.250001e-02
5.000003e-01 3.125005e-01 1.250001e-02
5.000003e-01 3.125005e-01 9.380009e-03
5.000003e-01 2.812505e-01 1.560002e-02
5.000003e-01 2.812505e-01 1.880002e-02
5.000003e-01 3.125005e-01 1.880002e-02
5.000003e-01 3.125005e-01 1.560002e-02
5.000003e-01 2.812505e-01 2.190002e-02
5.000003e-01 2.812505e-01 2.500002e-02
5.000003e-01 3.125005e-01 2.500002e-02
5.000003e-01 3.125005e-01 2.190002e-02
5.000003e-01 2.812505e-01 2.810003e-02
5.000003e-01 2.812505e-01 3.120003e-02
5.000003e-01 3.125005e-01 3.120003e-02
5.000003e-01 3.125005e-01 2.810003e-02
5.000003e-01 2.812505e-01 3.440003e-02
5.000003e-01 2.812505e-01 3.750004e-02
5.000003e-01 3.125005e-01 3.750004e-02
5.000003e-01 3.125005e-01 3.440003e-02
5.000003e-01 2.812505e-01 4.060004e-02
5.000003e-01 2.812505e-01 4.380004e-02
5.000003e-01 3.125005e-01 4.380004e-02
5.000003e-01 3.125005e-01 4.060004e-02
5.000003e-01 2.812505e-01 4.690005e-02
5.000003e-01 2.812505e-01 5.000005e-02
5.000003e-01 3.125005e-01 5.000005e-02
5.000003e-01 3.125005e-01 4.690005e-02
5.000004e-01 3.437505e-01 0.000000e+00
5.000004e-01 3.437505e-01 3.130003e-03
5.000004e-01 3.437505e-01 6.250006e-03
5.000004e-01 3.750005e-01 6.250006e-03
5.000004e-01 3.750005e-01 3.130003e-03
5.000004e-01 3.750005e-01 0.000000e+00
5.000004e-01 3.437505e-01 9.380009e-03
5.000004e-01 3.437505e-01 1.250001e-02
5.000004e-01 3.750005e-01 1.250001e-02
5.000004e-01 3.750005e-01 9.380009e-03
5.000004e-01 3.437505e-01 1.560002e-02
5.000004e-01 3.437505e-01 1.880002e-02
5.000004e-01 3.750005e-01 1.880002e-02
5.000004e-01 3.750005e-01 1.560002e-02
5.000004e-01 3.437505e-01 2.190002e-02
5.000004e-01 3.437505e-01 2.500002e-02
5.000004e-01 3.750005e-01 2.500002e-02
5.000004e-01 3.750005e-01 2.190002e-02
5.000004e-01 3.437505e-01 2.810003e-02
5.000004e-01 3.437505e-01 3.120003e-02
5.000004e-01 3.750005e-01 3.120003e-02
5.000004e-01 3.750005e-01 2.810003e-02
5.000004e-01 3.437505e-01 3.440003e-02
5.000004e-01 3.437505e-01 3.750004e-02
5.000004e-01 3.750005e-01 3.750004e-02
5.000004e-01 3.750005e-01 3.440003e-02
5.000004e-01 3.437505e-01 4.060004e-02
5.000004e-01 3.437505e-01 4.380004e-02
5.000004e-01 3.750005e-01 4.380004e-02
5.000004e-01 3.750005e-01 4.060004e-02
5.000004e-01 3.437505e-01 4.690005e-02
5.000004e-01 3.437505e-01 5.000005e-02
5.000004e-01 3.750005e-01 5.000005e-02
5.000004e-01 3.750005e-01 4.690005e-02
5.000004e-01 4.062505e-01 0.000000e+00
5.000004e-01 4.062505e-01 3.130003e-03
5.000004e-01 4.062505e-01 6.250006e-03
5.000004e-01 4.375005e-01 6.250006e-03
5.000004e-01 4.375005e-01 3.120003e-03
5.000004e-01 4.375005e-01 0.000000e+00
5.000004e-01 4.062505e-01 9.380009e-03
5.000004e-01 4.062505e-01 1.250001e-02
5.000004e-01 4.375005e-01 1.250001e-02
5.000004e-01 4.375005e-01 9.370009e-03
5.000004e-01 4.062505e-01 1.560002e-02
5.000004e-01 4.062505e-01 1.880002e-02
5.000004e-01 4.375005e-01 1.880002e-02
5.000004e-01 4.375005e-01 1.560002e-02
5.000004e-01 4.062505e-01 2.190002e-02
5.000004e-01 4.062505e-01 2.500002e-02
5.000004e-01 4.375005e-01 2.500002e-02
5.000004e-01 4.375005e-01 2.190002e-02
5.000004e-01 4.062505e-01 2.810003e-02
5.000004e-01 4.062505e-01 3.120003e-02
5.000004e-01 4.375005e-01 3.120003e-02
5.000004e-01 4.375005e-01 2.810003e-02
5.000004e-01 4.062505e-01 3.440003e-02
5.000004e-01 4.062505e-01 3.750004e-02
5.000004e-01 4.375005e-01 3.750004e-02
5.000004e-01 4.375005e-01 3.440003e-02
5.000004e-01 4.062505e-01 4.060004e-02
5.000004e-01 4.062505e-01 4.380004e-02
5.000004e-01 4.375005e-01 4.380004e-02
5.000004e-01 4.375005e-01 4.060004e-02
5.000004e-01 4.062505e-01 4.690005e-02
5.000004e-01 4.062505e-01 5.000005e-02
5.000004e-01 4.375005e-01 5.000005e-02
[...]
POINT_DATA 833
SCALARS u double 1
LOOKUP_TABLE default
1.235e-11
4.900e-11
2.343e-11
6.128e-11
8.694e-11
9.880e-11
1.027e-10
6.351e-11
2.466e-11
1.251e-10
1.365e-10
1.632e-10
1.743e-10
1.811e-10
1.420e-10
2.009e-10
2.120e-10
2.398e-10
2.509e-10
2.600e-10
2.199e-10
2.775e-10
2.887e-10
3.152e-10
3.265e-10
3.376e-10
2.988e-10
3.529e-10
3.643e-10
3.904e-10
4.020e-10
4.150e-10
3.763e-10
4.292e-10
4.410e-10
4.666e-10
4.787e-10
4.936e-10
4.549e-10
5.039e-10
5.163e-10
5.423e-10
5.538e-10
5.706e-10
5.321e-10
5.793e-10
5.925e-10
6.162e-10
6.299e-10
6.487e-10
6.103e-10
2.384e-11
6.435e-11
1.047e-10
1.029e-10
6.124e-11
1.956e-11
1.451e-10
1.854e-10
1.862e-10
1.447e-10
2.254e-10
2.667e-10
2.686e-10
2.274e-10
3.066e-10
3.466e-10
3.521e-10
3.110e-10
3.865e-10
4.264e-10
4.341e-10
3.931e-10
4.675e-10
5.073e-10
5.174e-10
4.764e-10
5.470e-10
5.868e-10
5.992e-10
5.583e-10
6.278e-10
6.674e-10
6.823e-10
6.414e-10
1.381e-11
5.650e-11
9.900e-11
9.301e-11
5.019e-11
7.194e-12
1.415e-10
1.839e-10
1.785e-10
1.359e-10
2.259e-10
2.692e-10
2.644e-10
2.208e-10
3.112e-10
3.530e-10
3.488e-10
3.066e-10
3.949e-10
4.367e-10
4.330e-10
3.909e-10
4.799e-10
5.216e-10
5.186e-10
4.765e-10
5.634e-10
6.052e-10
6.028e-10
5.607e-10
6.484e-10
6.902e-10
6.886e-10
6.464e-10
2.865e-13
4.294e-11
8.537e-11
7.636e-11
3.506e-11
-6.475e-12
1.278e-10
1.701e-10
1.588e-10
1.177e-10
2.120e-10
2.552e-10
2.417e-10
1.997e-10
2.970e-10
3.388e-10
3.232e-10
2.825e-10
3.806e-10
4.223e-10
4.045e-10
3.639e-10
4.654e-10
5.072e-10
4.873e-10
4.466e-10
5.490e-10
5.922e-10
5.702e-10
5.281e-10
6.341e-10
6.760e-10
6.520e-10
6.111e-10
-1.273e-11
2.695e-11
6.640e-11
5.601e-11
1.905e-11
-1.815e-11
1.059e-10
1.452e-10
1.299e-10
9.303e-11
1.842e-10
2.245e-10
2.043e-10
1.665e-10
2.634e-10
3.024e-10
2.774e-10
2.409e-10
3.413e-10
3.802e-10
3.506e-10
3.140e-10
4.205e-10
4.595e-10
4.251e-10
3.884e-10
4.985e-10
5.389e-10
4.998e-10
4.618e-10
5.780e-10
6.173e-10
5.735e-10
5.366e-10
-2.241e-11
1.178e-11
4.579e-11
3.668e-11
5.915e-12
-2.511e-11
7.991e-11
1.139e-10
9.831e-11
6.753e-11
1.476e-10
1.825e-10
1.606e-10
1.289e-10
2.162e-10
2.500e-10
2.219e-10
1.912e-10
2.838e-10
3.176e-10
2.834e-10
2.526e-10
3.525e-10
3.864e-10
3.460e-10
3.152e-10
4.203e-10
4.554e-10
4.088e-10
3.769e-10
4.894e-10
5.235e-10
4.707e-10
4.397e-10
-2.588e-11
1.736e-12
2.934e-11
2.617e-11
1.753e-12
-2.296e-11
5.709e-11
8.475e-11
7.506e-11
5.052e-11
1.122e-10
1.406e-10
1.247e-10
9.945e-11
1.682e-10
1.957e-10
1.737e-10
1.492e-10
2.233e-10
2.509e-10
2.229e-10
1.983e-10
2.795e-10
3.072e-10
2.730e-10
2.484e-10
3.349e-10
3.636e-10
3.232e-10
2.977e-10
3.914e-10
4.192e-10
3.727e-10
3.479e-10
-1.817e-11
3.152e-12
2.483e-11
2.373e-11
5.502e-12
-1.336e-11
4.671e-11
6.856e-11
6.189e-11
4.254e-11
9.031e-11
1.128e-10
1.023e-10
8.158e-11
1.348e-10
1.568e-10
1.432e-10
1.226e-10
1.789e-10
2.011e-10
1.849e-10
1.640e-10
2.240e-10
2.461e-10
2.277e-10
2.066e-10
2.683e-10
2.912e-10
2.705e-10
2.488e-10
3.134e-10
3.354e-10
3.123e-10
2.915e-10
0.000e+00
1.398e-06
0.000e+00
1.380e-06
8.018e-07
-4.942e-08
0.000e+00
9.443e-07
0.000e+00
5.566e-07
5.954e-07
9.474e-07
0.000e+00
2.876e-07
0.000e+00
1.076e-07
-1.144e-08
2.434e-07
0.000e+00
-5.489e-09
0.000e+00
-7.001e-08
-2.654e-07
-1.755e-07
0.000e+00
-1.014e-07
0.000e+00
-1.111e-07
-2.995e-07
-3.009e-07
0.000e+00
-1.072e-07
0.000e+00
-9.522e-08
-2.352e-07
-2.745e-07
0.000e+00
-7.882e-08
0.000e+00
-5.954e-08
-1.336e-07
-1.876e-07
0.000e+00
-3.512e-08
0.000e+00
0.000e+00
0.000e+00
-7.116e-08
-5.252e-07
-5.469e-07
-1.612e-06
-1.155e-06
-2.587e-07
-2.133e-07
-1.394e-06
-1.582e-06
-3.480e-07
-4.794e-07
-1.174e-06
-1.259e-06
-5.584e-07
-5.845e-07
-9.935e-07
-1.091e-06
-5.674e-07
-5.197e-07
-7.617e-07
-8.826e-07
-4.522e-07
-3.728e-07
-5.066e-07
-6.352e-07
-2.866e-07
-1.949e-07
-2.496e-07
-3.779e-07
-9.876e-08
0.000e+00
0.000e+00
-1.232e-07
-1.722e-06
-2.548e-06
-3.262e-06
-2.138e-06
-2.693e-06
-2.509e-06
-3.376e-06
-3.546e-06
-2.216e-06
-1.928e-06
-2.578e-06
-3.004e-06
-1.667e-06
-1.428e-06
-1.808e-06
-2.172e-06
-1.207e-06
-1.002e-06
-1.206e-06
-1.488e-06
-8.100e-07
-6.298e-07
-7.310e-07
-9.562e-07
-4.597e-07
-2.976e-07
-3.359e-07
-5.257e-07
-1.445e-07
0.000e+00
0.000e+00
-1.612e-07
-2.396e-06
-3.700e-06
-3.848e-06
-2.482e-06
-4.080e-06
-3.924e-06
-4.112e-06
-4.260e-06
-3.510e-06
-3.008e-06
-3.158e-06
-3.684e-06
-2.513e-06
-2.067e-06
-2.159e-06
-2.634e-06
-1.679e-06
-1.344e-06
-1.393e-06
-1.746e-06
-1.054e-06
-7.977e-07
-8.211e-07
-1.088e-06
-5.688e-07
-3.607e-07
-3.694e-07
-5.839e-07
-1.719e-07
0.000e+00
0.000e+00
-1.757e-07
-2.396e-06
-3.700e-06
-3.262e-06
-2.138e-06
-4.080e-06
-3.924e-06
-3.376e-06
-3.546e-06
-3.510e-06
-3.008e-06
-2.578e-06
-3.004e-06
-2.513e-06
-2.067e-06
-1.808e-06
-2.172e-06
-1.679e-06
-1.344e-06
-1.206e-06
-1.488e-06
-1.054e-06
-7.977e-07
-7.310e-07
-9.562e-07
-5.688e-07
-3.607e-07
-3.359e-07
-5.257e-07
-1.719e-07
0.000e+00
0.000e+00
-1.612e-07
-1.722e-06
-2.548e-06
-1.611e-06
-1.154e-06
-2.693e-06
-2.509e-06
-1.395e-06
-1.582e-06
-2.217e-06
-1.928e-06
-1.174e-06
-1.259e-06
-1.667e-06
-1.428e-06
-9.936e-07
-1.091e-06
-1.207e-06
-1.002e-06
-7.618e-07
-8.827e-07
-8.101e-07
-6.299e-07
-5.066e-07
-6.353e-07
-4.597e-07
-2.977e-07
-2.496e-07
-3.779e-07
-1.445e-07
0.000e+00
0.000e+00
-1.232e-07
-5.243e-07
-5.451e-07
8.022e-07
-4.910e-08
-2.568e-07
-2.118e-07
5.955e-07
9.476e-07
-3.469e-07
-4.786e-07
-1.138e-08
2.435e-07
-5.577e-07
-5.839e-07
-2.653e-07
-1.754e-07
-5.670e-07
-5.194e-07
-2.995e-07
-3.009e-07
-4.520e-07
-3.726e-07
-2.352e-07
-2.745e-07
-2.864e-07
-1.948e-07
-1.336e-07
-1.876e-07
-9.872e-08
0.000e+00
0.000e+00
-7.116e-08
1.399e-06
1.381e-06
0.000e+00
0.000e+00
9.452e-07
5.572e-07
0.000e+00
0.000e+00
2.878e-07
1.076e-07
0.000e+00
0.000e+00
-5.592e-09
-7.020e-08
0.000e+00
0.000e+00
-1.016e-07
-1.113e-07
0.000e+00
0.000e+00
-1.074e-07
-9.540e-08
0.000e+00
0.000e+00
-7.897e-08
-5.964e-08
0.000e+00
0.000e+00
-3.517e-08
0.000e+00
0.000e+00
0.000e+00
0.000e+00
0.000e+00
0.000e+00
3.516e-08
0.000e+00
5.954e-08
1.336e-07
7.127e-08
0.000e+00
0.000e+00
7.880e-08
0.000e+00
9.522e-08
2.352e-07
1.876e-07
0.000e+00
1.072e-07
0.000e+00
1.111e-07
2.995e-07
2.745e-07
0.000e+00
1.014e-07
0.000e+00
7.002e-08
2.654e-07
3.009e-07
0.000e+00
5.491e-09
0.000e+00
-1.076e-07
1.145e-08
1.755e-07
0.000e+00
-2.876e-07
0.000e+00
-5.566e-07
-5.953e-07
-2.434e-07
0.000e+00
-9.443e-07
0.000e+00
-1.380e-06
-8.018e-07
-9.474e-07
0.000e+00
-1.398e-06
4.945e-08
0.000e+00
9.892e-08
1.949e-07
2.496e-07
1.234e-07
0.000e+00
2.864e-07
3.728e-07
5.066e-07
3.777e-07
4.522e-07
5.197e-07
7.617e-07
6.352e-07
5.674e-07
5.845e-07
9.935e-07
8.826e-07
5.584e-07
4.795e-07
1.174e-06
1.091e-06
3.480e-07
2.133e-07
1.394e-06
1.259e-06
2.587e-07
5.469e-07
1.612e-06
1.582e-06
5.253e-07
1.155e-06
0.000e+00
1.447e-07
2.976e-07
3.359e-07
1.614e-07
0.000e+00
4.594e-07
6.298e-07
7.310e-07
5.253e-07
8.100e-07
1.002e-06
1.206e-06
9.562e-07
1.207e-06
1.428e-06
1.808e-06
1.488e-06
1.667e-06
1.928e-06
2.578e-06
2.172e-06
2.216e-06
2.509e-06
3.376e-06
3.004e-06
2.693e-06
2.548e-06
3.262e-06
3.546e-06
1.722e-06
2.138e-06
0.000e+00
1.722e-07
3.607e-07
3.694e-07
1.760e-07
0.000e+00
5.685e-07
7.977e-07
8.211e-07
5.835e-07
1.054e-06
1.344e-06
1.393e-06
1.088e-06
1.679e-06
2.067e-06
2.159e-06
1.746e-06
2.513e-06
3.008e-06
3.158e-06
2.634e-06
3.510e-06
3.924e-06
4.112e-06
3.684e-06
4.080e-06
3.700e-06
3.848e-06
4.260e-06
2.396e-06
2.482e-06
0.000e+00
1.722e-07
3.607e-07
3.359e-07
1.614e-07
0.000e+00
5.685e-07
7.977e-07
7.310e-07
5.254e-07
1.054e-06
1.344e-06
1.206e-06
9.562e-07
1.679e-06
2.067e-06
1.808e-06
1.488e-06
2.513e-06
3.008e-06
2.578e-06
2.172e-06
3.510e-06
3.924e-06
3.376e-06
3.004e-06
4.080e-06
3.700e-06
3.261e-06
3.546e-06
2.396e-06
2.138e-06
0.000e+00
1.447e-07
2.976e-07
2.496e-07
1.234e-07
0.000e+00
4.594e-07
6.299e-07
5.066e-07
3.777e-07
8.101e-07
1.002e-06
7.618e-07
6.353e-07
1.207e-06
1.428e-06
9.936e-07
8.827e-07
1.667e-06
1.928e-06
1.174e-06
1.091e-06
2.217e-06
2.509e-06
1.395e-06
1.259e-06
2.693e-06
2.548e-06
1.611e-06
1.582e-06
1.722e-06
1.154e-06
0.000e+00
9.888e-08
1.948e-07
1.336e-07
7.127e-08
0.000e+00
2.863e-07
3.726e-07
2.352e-07
1.876e-07
4.519e-07
5.194e-07
2.995e-07
2.745e-07
5.670e-07
5.839e-07
2.653e-07
3.009e-07
5.577e-07
4.786e-07
1.137e-08
1.754e-07
3.469e-07
2.117e-07
-5.955e-07
-2.435e-07
2.568e-07
5.451e-07
-8.022e-07
-9.476e-07
5.243e-07
4.906e-08
0.000e+00
3.522e-08
5.964e-08
0.000e+00
0.000e+00
0.000e+00
7.894e-08
9.539e-08
0.000e+00
0.000e+00
1.074e-07
1.113e-07
0.000e+00
0.000e+00
1.016e-07
7.020e-08
0.000e+00
0.000e+00
5.589e-09
-1.076e-07
0.000e+00
0.000e+00
-2.878e-07
-5.572e-07
0.000e+00
0.000e+00
-9.452e-07
-1.381e-06
0.000e+00
0.000e+00
-1.399e-06
0.000e+00
SCALARS v double 1
LOOKUP_TABLE default
1.893e-05
9.876e-06
1.918e-05
1.127e-05
2.040e-06
3.040e-06
5.163e-06
1.334e-05
2.207e-05
-5.837e-06
-5.263e-06
-1.385e-05
-1.346e-05
-1.097e-05
-2.919e-06
-2.194e-05
-2.157e-05
-3.038e-05
-2.994e-05
-2.725e-05
-1.899e-05
-3.861e-05
-3.808e-05
-4.688e-05
-4.626e-05
-4.328e-05
-3.526e-05
-5.521e-05
-5.448e-05
-6.358e-05
-6.276e-05
-5.941e-05
-5.133e-05
-7.227e-05
-7.136e-05
-8.073e-05
-7.975e-05
-7.601e-05
-6.781e-05
-8.924e-05
-8.821e-05
-9.806e-05
-9.674e-05
-9.265e-05
-8.428e-05
-1.066e-04
-1.056e-04
-1.152e-04
-1.143e-04
-1.100e-04
-1.014e-04
2.183e-05
1.429e-05
6.747e-06
6.789e-06
1.335e-05
2.014e-05
-8.434e-07
-8.372e-06
-6.239e-06
2.638e-07
-1.582e-05
-2.350e-05
-1.918e-05
-1.271e-05
-3.096e-05
-3.843e-05
-3.237e-05
-2.587e-05
-4.593e-05
-5.346e-05
-4.545e-05
-3.889e-05
-6.129e-05
-6.897e-05
-5.892e-05
-5.226e-05
-7.668e-05
-8.448e-05
-7.239e-05
-6.562e-05
-9.259e-05
-1.006e-04
-8.636e-05
-7.945e-05
1.656e-05
1.125e-05
6.017e-06
4.413e-06
8.047e-06
1.178e-05
7.712e-07
-4.437e-06
-2.828e-06
7.851e-07
-9.599e-06
-1.493e-05
-1.012e-05
-6.418e-06
-2.009e-05
-2.527e-05
-1.732e-05
-1.372e-05
-3.047e-05
-3.570e-05
-2.457e-05
-2.094e-05
-4.112e-05
-4.642e-05
-3.202e-05
-2.834e-05
-5.175e-05
-5.714e-05
-3.948e-05
-3.573e-05
-6.277e-05
-6.827e-05
-4.719e-05
-4.338e-05
6.097e-06
4.201e-06
2.338e-06
1.810e-09
1.511e-09
1.202e-09
4.733e-07
-1.380e-06
2.235e-09
2.036e-09
-3.218e-06
-5.116e-06
3.277e-09
2.653e-09
-6.956e-06
-8.802e-06
3.386e-09
3.258e-09
-1.065e-05
-1.252e-05
3.908e-09
3.706e-09
-1.445e-05
-1.633e-05
3.442e-09
3.784e-09
-1.823e-05
-2.022e-05
6.476e-09
4.160e-09
-2.215e-05
-2.411e-05
3.968e-09
4.809e-09
-6.095e-06
-4.199e-06
-2.335e-06
-4.410e-06
-8.044e-06
-1.177e-05
-4.691e-07
1.385e-06
2.832e-06
-7.816e-07
3.223e-06
5.121e-06
1.013e-05
6.422e-06
6.963e-06
8.809e-06
1.733e-05
1.373e-05
1.066e-05
1.252e-05
2.458e-05
2.095e-05
1.446e-05
1.634e-05
3.203e-05
2.835e-05
1.824e-05
2.022e-05
3.961e-05
3.574e-05
2.216e-05
2.412e-05
4.721e-05
4.339e-05
-1.656e-05
-1.125e-05
-6.013e-06
-6.785e-06
-1.334e-05
-2.014e-05
-7.663e-07
4.443e-06
6.244e-06
-2.594e-07
9.604e-06
1.493e-05
1.940e-05
1.271e-05
2.010e-05
2.528e-05
3.238e-05
2.588e-05
3.048e-05
3.570e-05
4.546e-05
3.890e-05
4.113e-05
4.643e-05
5.892e-05
5.227e-05
5.177e-05
5.733e-05
7.262e-05
6.563e-05
6.278e-05
6.828e-05
8.637e-05
7.946e-05
-2.183e-05
-1.429e-05
-6.742e-06
-5.159e-06
-1.336e-05
-2.207e-05
8.498e-07
8.379e-06
1.098e-05
2.898e-06
1.583e-05
2.352e-05
2.726e-05
1.899e-05
3.097e-05
3.844e-05
4.329e-05
3.527e-05
4.595e-05
5.348e-05
5.942e-05
5.133e-05
6.132e-05
6.896e-05
7.602e-05
6.782e-05
7.668e-05
8.473e-05
9.293e-05
8.429e-05
9.262e-05
1.006e-04
1.100e-04
1.014e-04
-1.919e-05
-1.127e-05
-3.039e-06
-2.036e-06
-9.873e-06
-1.893e-05
5.265e-06
1.347e-05
1.386e-05
5.841e-06
2.157e-05
2.994e-05
3.039e-05
2.195e-05
3.808e-05
4.626e-05
4.689e-05
3.861e-05
5.449e-05
6.277e-05
6.359e-05
5.522e-05
7.137e-05
7.976e-05
8.074e-05
7.228e-05
8.822e-05
9.702e-05
9.807e-05
8.925e-05
1.056e-04
1.143e-04
1.152e-04
1.067e-04
0.000e+00
1.099e-05
0.000e+00
2.821e-06
6.125e-06
1.404e-05
0.000e+00
1.294e-06
0.000e+00
6.200e-07
9.734e-07
2.345e-06
0.000e+00
2.356e-07
0.000e+00
5.355e-08
1.072e-08
3.285e-07
0.000e+00
-3.612e-08
0.000e+00
-7.607e-08
-1.787e-07
-1.271e-07
0.000e+00
-9.036e-08
0.000e+00
-9.202e-08
-1.806e-07
-1.889e-07
0.000e+00
-8.765e-08
0.000e+00
-8.025e-08
-1.465e-07
-1.650e-07
0.000e+00
-7.052e-08
0.000e+00
-5.689e-08
-9.664e-08
-1.253e-07
0.000e+00
-3.132e-08
0.000e+00
0.000e+00
0.000e+00
-4.848e-08
1.512e-05
7.620e-06
7.707e-06
1.424e-05
3.314e-06
1.234e-06
1.426e-06
3.661e-06
3.346e-07
-6.677e-08
-1.190e-07
3.453e-07
-2.309e-07
-2.783e-07
-3.367e-07
-2.948e-07
-2.743e-07
-2.503e-07
-2.845e-07
-3.207e-07
-2.207e-07
-1.903e-07
-2.058e-07
-2.446e-07
-1.579e-07
-1.167e-07
-1.197e-07
-1.664e-07
-5.561e-08
0.000e+00
0.000e+00
-5.557e-08
1.198e-05
6.722e-06
4.938e-06
8.599e-06
3.353e-06
1.383e-06
1.084e-06
2.534e-06
3.487e-07
-1.215e-07
-8.851e-08
2.909e-07
-2.958e-07
-3.329e-07
-2.649e-07
-2.342e-07
-3.125e-07
-2.728e-07
-2.141e-07
-2.473e-07
-2.306e-07
-1.906e-07
-1.464e-07
-1.791e-07
-1.513e-07
-1.069e-07
-8.023e-08
-1.148e-07
-4.892e-08
0.000e+00
0.000e+00
-3.641e-08
4.486e-06
2.607e-06
8.143e-10
9.864e-10
1.359e-06
5.928e-07
4.924e-10
6.478e-10
1.654e-07
-4.445e-08
2.542e-10
3.602e-10
-1.278e-07
-1.461e-07
1.176e-10
1.748e-10
-1.363e-07
-1.175e-07
4.972e-11
7.739e-11
-9.779e-08
-7.941e-08
1.826e-11
3.093e-11
-6.190e-08
-4.299e-08
4.133e-12
9.745e-12
-1.943e-08
0.000e+00
0.000e+00
9.453e-13
-4.484e-06
-2.605e-06
-4.936e-06
-8.597e-06
-1.357e-06
-5.918e-07
-1.083e-06
-2.532e-06
-1.647e-07
4.495e-08
8.898e-08
-2.902e-07
1.281e-07
1.463e-07
2.651e-07
2.346e-07
1.365e-07
1.176e-07
2.142e-07
2.475e-07
9.785e-08
7.944e-08
1.464e-07
1.792e-07
6.192e-08
4.300e-08
8.024e-08
1.149e-07
1.943e-08
0.000e+00
0.000e+00
3.642e-08
-1.198e-05
-6.720e-06
-7.706e-06
-1.424e-05
-3.352e-06
-1.382e-06
-1.425e-06
-3.660e-06
-3.482e-07
1.219e-07
1.193e-07
-3.449e-07
2.961e-07
3.331e-07
3.369e-07
2.951e-07
3.126e-07
2.729e-07
2.846e-07
3.208e-07
2.306e-07
1.906e-07
2.058e-07
2.446e-07
1.514e-07
1.069e-07
1.197e-07
1.665e-07
4.893e-08
0.000e+00
0.000e+00
5.557e-08
-1.511e-05
-7.617e-06
-6.124e-06
-1.404e-05
-3.312e-06
-1.233e-06
-9.730e-07
-2.344e-06
-3.342e-07
6.695e-08
-1.053e-08
-3.283e-07
2.310e-07
2.783e-07
1.789e-07
1.272e-07
2.743e-07
2.503e-07
1.806e-07
1.890e-07
2.207e-07
1.903e-07
1.465e-07
1.650e-07
1.579e-07
1.167e-07
9.665e-08
1.253e-07
5.562e-08
0.000e+00
0.000e+00
4.848e-08
-1.100e-05
-2.826e-06
0.000e+00
0.000e+00
-1.296e-06
-6.206e-07
0.000e+00
0.000e+00
-2.358e-07
-5.346e-08
0.000e+00
0.000e+00
3.630e-08
7.626e-08
0.000e+00
0.000e+00
9.055e-08
9.219e-08
0.000e+00
0.000e+00
8.780e-08
8.038e-08
0.000e+00
0.000e+00
7.063e-08
5.698e-08
0.000e+00
0.000e+00
3.136e-08
0.000e+00
0.000e+00
0.000e+00
0.000e+00
0.000e+00
0.000e+00
-3.137e-08
0.000e+00
-5.689e-08
-9.663e-08
-4.855e-08
0.000e+00
0.000e+00
-7.049e-08
0.000e+00
-8.025e-08
-1.465e-07
-1.253e-07
0.000e+00
-8.764e-08
0.000e+00
-9.202e-08
-1.806e-07
-1.650e-07
0.000e+00
-9.036e-08
0.000e+00
-7.607e-08
-1.788e-07
-1.889e-07
0.000e+00
-3.613e-08
0.000e+00
5.354e-08
1.072e-08
-1.271e-07
0.000e+00
2.356e-07
0.000e+00
6.200e-07
9.734e-07
3.285e-07
0.000e+00
1.294e-06
0.000e+00
2.821e-06
6.125e-06
2.345e-06
0.000e+00
1.099e-05
1.404e-05
0.000e+00
-5.570e-08
-1.167e-07
-1.196e-07
-5.565e-08
0.000e+00
-1.578e-07
-1.903e-07
-2.058e-07
-1.664e-07
-2.207e-07
-2.503e-07
-2.845e-07
-2.446e-07
-2.743e-07
-2.783e-07
-3.367e-07
-3.207e-07
-2.309e-07
-6.677e-08
-1.190e-07
-2.948e-07
3.346e-07
1.234e-06
1.426e-06
3.453e-07
3.314e-06
7.620e-06
7.707e-06
3.661e-06
1.512e-05
1.424e-05
0.000e+00
-4.900e-08
-1.069e-07
-8.022e-08
-3.647e-08
0.000e+00
-1.513e-07
-1.906e-07
-1.464e-07
-1.148e-07
-2.306e-07
-2.728e-07
-2.141e-07
-1.791e-07
-3.125e-07
-3.329e-07
-2.649e-07
-2.473e-07
-2.958e-07
-1.215e-07
-8.852e-08
-2.342e-07
3.487e-07
1.383e-06
1.084e-06
2.909e-07
3.353e-06
6.722e-06
4.938e-06
2.534e-06
1.198e-05
8.599e-06
0.000e+00
-1.946e-08
-4.298e-08
6.584e-12
2.064e-12
0.000e+00
-6.186e-08
-7.940e-08
2.197e-11
1.300e-11
-9.778e-08
-1.175e-07
5.322e-11
3.475e-11
-1.363e-07
-1.461e-07
1.184e-10
7.998e-11
-1.278e-07
-4.445e-08
2.476e-10
1.727e-10
1.654e-07
5.928e-07
4.740e-10
3.479e-10
1.359e-06
2.607e-06
7.935e-10
6.253e-10
4.486e-06
9.787e-10
0.000e+00
1.946e-08
4.299e-08
8.023e-08
3.648e-08
0.000e+00
6.189e-08
7.944e-08
1.464e-07
1.148e-07
9.785e-08
1.176e-07
2.142e-07
1.792e-07
1.365e-07
1.463e-07
2.651e-07
2.475e-07
1.281e-07
4.494e-08
8.897e-08
2.346e-07
-1.647e-07
-5.918e-07
-1.083e-06
-2.902e-07
-1.357e-06
-2.605e-06
-4.936e-06
-2.532e-06
-4.484e-06
-8.597e-06
0.000e+00
4.901e-08
1.069e-07
1.197e-07
5.566e-08
0.000e+00
1.513e-07
1.906e-07
2.058e-07
1.664e-07
2.306e-07
2.729e-07
2.846e-07
2.446e-07
3.126e-07
3.331e-07
3.369e-07
3.208e-07
2.961e-07
1.219e-07
1.193e-07
2.951e-07
-3.482e-07
-1.382e-06
-1.425e-06
-3.449e-07
-3.352e-06
-6.720e-06
-7.706e-06
-3.660e-06
-1.198e-05
-1.424e-05
0.000e+00
5.570e-08
1.167e-07
9.664e-08
4.855e-08
0.000e+00
1.578e-07
1.902e-07
1.465e-07
1.253e-07
2.207e-07
2.503e-07
1.806e-07
1.650e-07
2.743e-07
2.783e-07
1.789e-07
1.890e-07
2.310e-07
6.694e-08
-1.053e-08
1.272e-07
-3.342e-07
-1.233e-06
-9.730e-07
-3.283e-07
-3.312e-06
-7.617e-06
-6.124e-06
-2.344e-06
-1.511e-05
-1.404e-05
0.000e+00
3.141e-08
5.697e-08
0.000e+00
0.000e+00
0.000e+00
7.060e-08
8.038e-08
0.000e+00
0.000e+00
8.780e-08
9.219e-08
0.000e+00
0.000e+00
9.055e-08
7.626e-08
0.000e+00
0.000e+00
3.630e-08
-5.346e-08
0.000e+00
0.000e+00
-2.358e-07
-6.206e-07
0.000e+00
0.000e+00
-1.296e-06
-2.826e-06
0.000e+00
0.000e+00
-1.100e-05
0.000e+00
SCALARS w double 1
LOOKUP_TABLE default
7.554e-05
7.624e-05
1.659e-04
1.660e-04
7.683e-05
1.660e-04
2.561e-04
2.561e-04
2.562e-04
7.734e-05
1.661e-04
7.777e-05
1.662e-04
2.559e-04
2.560e-04
7.813e-05
1.663e-04
7.844e-05
1.664e-04
2.557e-04
2.558e-04
7.868e-05
1.664e-04
7.886e-05
1.665e-04
2.555e-04
2.556e-04
7.900e-05
1.665e-04
7.910e-05
1.666e-04
2.552e-04
2.553e-04
7.917e-05
1.666e-04
7.921e-05
1.666e-04
2.549e-04
2.550e-04
7.923e-05
1.665e-04
7.924e-05
1.665e-04
2.545e-04
2.547e-04
7.923e-05
1.664e-04
7.922e-05
1.664e-04
2.541e-04
2.543e-04
3.414e-04
3.414e-04
3.414e-04
4.175e-04
4.175e-04
4.174e-04
3.413e-04
3.413e-04
4.175e-04
4.175e-04
3.412e-04
3.410e-04
4.173e-04
4.174e-04
3.409e-04
3.407e-04
4.169e-04
4.171e-04
3.405e-04
3.403e-04
4.164e-04
4.167e-04
3.400e-04
3.395e-04
4.157e-04
4.161e-04
3.392e-04
3.389e-04
4.149e-04
4.153e-04
3.388e-04
3.384e-04
4.139e-04
4.144e-04
4.811e-04
4.812e-04
4.812e-04
5.290e-04
5.289e-04
5.288e-04
4.812e-04
4.812e-04
5.290e-04
5.290e-04
4.811e-04
4.809e-04
5.287e-04
5.289e-04
4.808e-04
4.805e-04
5.283e-04
5.285e-04
4.802e-04
4.799e-04
5.276e-04
5.280e-04
4.796e-04
4.791e-04
5.267e-04
5.272e-04
4.787e-04
4.782e-04
5.256e-04
5.262e-04
4.776e-04
4.770e-04
5.243e-04
5.250e-04
5.584e-04
5.585e-04
5.586e-04
5.686e-04
5.685e-04
5.684e-04
5.586e-04
5.586e-04
5.686e-04
5.686e-04
5.585e-04
5.583e-04
5.683e-04
5.685e-04
5.581e-04
5.579e-04
5.679e-04
5.681e-04
5.575e-04
5.572e-04
5.672e-04
5.675e-04
5.567e-04
5.562e-04
5.662e-04
5.667e-04
5.557e-04
5.550e-04
5.650e-04
5.656e-04
5.543e-04
5.536e-04
5.635e-04
5.643e-04
5.584e-04
5.585e-04
5.586e-04
5.290e-04
5.289e-04
5.288e-04
5.586e-04
5.586e-04
5.290e-04
5.290e-04
5.585e-04
5.583e-04
5.287e-04
5.289e-04
5.581e-04
5.579e-04
5.283e-04
5.285e-04
5.575e-04
5.572e-04
5.276e-04
5.280e-04
5.567e-04
5.562e-04
5.267e-04
5.272e-04
5.557e-04
5.550e-04
5.256e-04
5.262e-04
5.543e-04
5.536e-04
5.243e-04
5.250e-04
4.811e-04
4.812e-04
4.812e-04
4.175e-04
4.175e-04
4.174e-04
4.812e-04
4.811e-04
4.174e-04
4.175e-04
4.811e-04
4.809e-04
4.172e-04
4.174e-04
4.807e-04
4.805e-04
4.169e-04
4.171e-04
4.802e-04
4.799e-04
4.164e-04
4.166e-04
4.795e-04
4.791e-04
4.157e-04
4.160e-04
4.787e-04
4.781e-04
4.149e-04
4.153e-04
4.776e-04
4.769e-04
4.139e-04
4.144e-04
3.413e-04
3.413e-04
3.412e-04
2.560e-04
2.561e-04
2.562e-04
3.412e-04
3.411e-04
2.558e-04
2.559e-04
3.410e-04
3.409e-04
2.557e-04
2.558e-04
3.407e-04
3.405e-04
2.554e-04
2.555e-04
3.403e-04
3.401e-04
2.552e-04
2.553e-04
3.399e-04
3.396e-04
2.549e-04
2.550e-04
3.393e-04
3.390e-04
2.545e-04
2.547e-04
3.386e-04
3.382e-04
2.541e-04
2.543e-04
1.660e-04
1.661e-04
1.661e-04
7.678e-05
7.619e-05
7.549e-05
1.662e-04