# vtk DataFile Version 3.0
vtk output
ASCII
DATASET UNSTRUCTURED_GRID
POINTS 4165 double
8.000008e-01 8.750008e-01 0.000000e+00
8.000008e-01 8.750008e-01 -8.300008e-03
8.000009e-01 8.958308e-01 0.000000e+00
8.000009e-01 8.958308e-01 -8.300008e-03
8.000008e-01 8.750008e-01 -1.700002e-02
8.000009e-01 8.958308e-01 -1.700002e-02
8.000009e-01 9.166708e-01 -1.700002e-02
8.000009e-01 9.166708e-01 -8.300008e-03
8.000009e-01 9.166708e-01 0.000000e+00
8.000008e-01 8.750008e-01 -2.500002e-02
8.000009e-01 8.958308e-01 -2.500002e-02
8.000008e-01 8.750008e-01 -3.300003e-02
8.000009e-01 8.958308e-01 -3.300003e-02
8.000009e-01 9.166708e-01 -3.300003e-02
8.000009e-01 9.166708e-01 -2.500002e-02
8.000008e-01 8.750008e-01 -4.200004e-02
8.000009e-01 8.958308e-01 -4.200004e-02
8.000008e-01 8.750008e-01 -5.000005e-02
8.000009e-01 8.958308e-01 -5.000005e-02
8.000009e-01 9.166708e-01 -5.000005e-02
8.000009e-01 9.166708e-01 -4.200004e-02
8.000010e-01 9.375008e-01 0.000000e+00
8.000010e-01 9.375008e-01 -8.300008e-03
8.000010e-01 9.375008e-01 -1.700002e-02
8.000010e-01 9.583308e-01 -1.700002e-02
8.000010e-01 9.583308e-01 -8.300008e-03
8.000010e-01 9.583308e-01 0.000000e+00
8.000010e-01 9.375008e-01 -2.500002e-02
8.000010e-01 9.375008e-01 -3.300003e-02
8.000010e-01 9.583308e-01 -3.300003e-02
8.000010e-01 9.583308e-01 -2.500002e-02
8.000010e-01 9.375008e-01 -4.200004e-02
8.000010e-01 9.375008e-01 -5.000005e-02
8.000010e-01 9.583308e-01 -5.000005e-02
8.000010e-01 9.583308e-01 -4.200004e-02
8.000010e-01 9.791708e-01 0.000000e+00
8.000010e-01 9.791708e-01 -8.300008e-03
8.000010e-01 9.791708e-01 -1.700002e-02
8.000010e-01 1.000001e+00 -1.700002e-02
8.000010e-01 1.000001e+00 -8.300008e-03
8.000010e-01 1.000001e+00 0.000000e+00
8.000010e-01 9.791708e-01 -2.500002e-02
8.000010e-01 9.791708e-01 -3.300003e-02
8.000010e-01 1.000001e+00 -3.300003e-02
8.000010e-01 1.000001e+00 -2.500002e-02
8.000010e-01 9.791708e-01 -4.200004e-02
8.000010e-01 9.791708e-01 -5.000005e-02
8.000010e-01 1.000001e+00 -5.000005e-02
8.000010e-01 1.000001e+00 -4.200004e-02
8.000007e-01 7.500008e-01 0.000000e+00
8.000007e-01 7.500008e-01 -8.300008e-03
8.000008e-01 7.708308e-01 0.000000e+00
8.000008e-01 7.708308e-01 -8.300008e-03
8.000007e-01 7.500008e-01 -1.700002e-02
8.000008e-01 7.708308e-01 -1.700002e-02
8.000008e-01 7.916708e-01 -1.700002e-02
8.000008e-01 7.916708e-01 -8.300008e-03
8.000008e-01 7.916708e-01 0.000000e+00
8.000007e-01 7.500008e-01 -2.500002e-02
8.000008e-01 7.708308e-01 -2.500002e-02
8.000007e-01 7.500008e-01 -3.300003e-02
8.000008e-01 7.708308e-01 -3.300003e-02
8.000008e-01 7.916708e-01 -3.300003e-02
8.000008e-01 7.916708e-01 -2.500002e-02
8.000007e-01 7.500008e-01 -4.200004e-02
8.000008e-01 7.708308e-01 -4.200004e-02
8.000007e-01 7.500008e-01 -5.000005e-02
8.000008e-01 7.708308e-01 -5.000005e-02
8.000008e-01 7.916708e-01 -5.000005e-02
8.000008e-01 7.916708e-01 -4.200004e-02
8.000008e-01 8.125008e-01 0.000000e+00
8.000008e-01 8.125008e-01 -8.300008e-03
8.000008e-01 8.125008e-01 -1.700002e-02
8.000008e-01 8.333308e-01 -1.700002e-02
8.000008e-01 8.333308e-01 -8.300008e-03
8.000008e-01 8.333308e-01 0.000000e+00
8.000008e-01 8.125008e-01 -2.500002e-02
8.000008e-01 8.125008e-01 -3.300003e-02
8.000008e-01 8.333308e-01 -3.300003e-02
8.000008e-01 8.333308e-01 -2.500002e-02
8.000008e-01 8.125008e-01 -4.200004e-02
8.000008e-01 8.125008e-01 -5.000005e-02
8.000008e-01 8.333308e-01 -5.000005e-02
8.000008e-01 8.333308e-01 -4.200004e-02
8.000008e-01 8.541708e-01 0.000000e+00
8.000008e-01 8.541708e-01 -8.300008e-03
8.000008e-01 8.541708e-01 -1.700002e-02
8.000008e-01 8.541708e-01 -2.500002e-02
8.000008e-01 8.541708e-01 -3.300003e-02
8.000008e-01 8.541708e-01 -4.200004e-02
8.000008e-01 8.541708e-01 -5.000005e-02
8.000006e-01 6.250008e-01 0.000000e+00
8.000006e-01 6.250008e-01 -8.300008e-03
8.000007e-01 6.458308e-01 0.000000e+00
8.000007e-01 6.458308e-01 -8.300008e-03
8.000006e-01 6.250008e-01 -1.700002e-02
8.000007e-01 6.458308e-01 -1.700002e-02
8.000007e-01 6.666708e-01 -1.700002e-02
8.000007e-01 6.666708e-01 -8.300008e-03
8.000007e-01 6.666708e-01 0.000000e+00
8.000006e-01 6.250008e-01 -2.500002e-02
8.000007e-01 6.458308e-01 -2.500002e-02
8.000006e-01 6.250008e-01 -3.300003e-02
8.000007e-01 6.458308e-01 -3.300003e-02
8.000007e-01 6.666708e-01 -3.300003e-02
8.000007e-01 6.666708e-01 -2.500002e-02
8.000006e-01 6.250008e-01 -4.200004e-02
8.000007e-01 6.458308e-01 -4.200004e-02
8.000006e-01 6.250008e-01 -5.000005e-02
8.000007e-01 6.458308e-01 -5.000005e-02
8.000007e-01 6.666708e-01 -5.000005e-02
8.000007e-01 6.666708e-01 -4.200004e-02
8.000007e-01 6.875008e-01 0.000000e+00
8.000007e-01 6.875008e-01 -8.300008e-03
8.000007e-01 6.875008e-01 -1.700002e-02
8.000007e-01 7.083308e-01 -1.700002e-02
8.000007e-01 7.083308e-01 -8.300008e-03
8.000007e-01 7.083308e-01 0.000000e+00
8.000007e-01 6.875008e-01 -2.500002e-02
8.000007e-01 6.875008e-01 -3.300003e-02
8.000007e-01 7.083308e-01 -3.300003e-02
8.000007e-01 7.083308e-01 -2.500002e-02
8.000007e-01 6.875008e-01 -4.200004e-02
8.000007e-01 6.875008e-01 -5.000005e-02
8.000007e-01 7.083308e-01 -5.000005e-02
8.000007e-01 7.083308e-01 -4.200004e-02
8.000007e-01 7.291708e-01 0.000000e+00
8.000007e-01 7.291708e-01 -8.300008e-03
8.000007e-01 7.291708e-01 -1.700002e-02
8.000007e-01 7.291708e-01 -2.500002e-02
8.000007e-01 7.291708e-01 -3.300003e-02
8.000007e-01 7.291708e-01 -4.200004e-02
8.000007e-01 7.291708e-01 -5.000005e-02
8.000005e-01 5.000008e-01 0.000000e+00
8.000005e-01 5.000008e-01 -8.300008e-03
8.000005e-01 5.208308e-01 0.000000e+00
8.000005e-01 5.208308e-01 -8.300008e-03
8.000005e-01 5.000008e-01 -1.700002e-02
8.000005e-01 5.208308e-01 -1.700002e-02
8.000005e-01 5.416708e-01 -1.700002e-02
8.000005e-01 5.416708e-01 -8.300008e-03
8.000005e-01 5.416708e-01 0.000000e+00
8.000005e-01 5.000008e-01 -2.500002e-02
8.000005e-01 5.208308e-01 -2.500002e-02
8.000005e-01 5.000008e-01 -3.300003e-02
8.000005e-01 5.208308e-01 -3.300003e-02
8.000005e-01 5.416708e-01 -3.300003e-02
8.000005e-01 5.416708e-01 -2.500002e-02
8.000005e-01 5.000008e-01 -4.200004e-02
8.000005e-01 5.208308e-01 -4.200004e-02
8.000005e-01 5.000008e-01 -5.000005e-02
8.000005e-01 5.208308e-01 -5.000005e-02
8.000005e-01 5.416708e-01 -5.000005e-02
8.000005e-01 5.416708e-01 -4.200004e-02
8.000005e-01 5.625008e-01 0.000000e+00
8.000005e-01 5.625008e-01 -8.300008e-03
8.000005e-01 5.625008e-01 -1.700002e-02
8.000006e-01 5.833308e-01 -1.700002e-02
8.000006e-01 5.833308e-01 -8.300008e-03
8.000006e-01 5.833308e-01 0.000000e+00
8.000005e-01 5.625008e-01 -2.500002e-02
8.000005e-01 5.625008e-01 -3.300003e-02
8.000006e-01 5.833308e-01 -3.300003e-02
8.000006e-01 5.833308e-01 -2.500002e-02
8.000005e-01 5.625008e-01 -4.200004e-02
8.000005e-01 5.625008e-01 -5.000005e-02
8.000006e-01 5.833308e-01 -5.000005e-02
8.000006e-01 5.833308e-01 -4.200004e-02
8.000006e-01 6.041708e-01 0.000000e+00
8.000006e-01 6.041708e-01 -8.300008e-03
8.000006e-01 6.041708e-01 -1.700002e-02
8.000006e-01 6.041708e-01 -2.500002e-02
8.000006e-01 6.041708e-01 -3.300003e-02
8.000006e-01 6.041708e-01 -4.200004e-02
8.000006e-01 6.041708e-01 -5.000005e-02
8.000004e-01 3.750008e-01 0.000000e+00
8.000004e-01 3.750008e-01 -8.300008e-03
8.000004e-01 3.958308e-01 0.000000e+00
8.000004e-01 3.958308e-01 -8.300008e-03
8.000004e-01 3.750008e-01 -1.700002e-02
8.000004e-01 3.958308e-01 -1.700002e-02
8.000004e-01 4.166708e-01 -1.700002e-02
8.000004e-01 4.166708e-01 -8.300008e-03
8.000004e-01 4.166708e-01 0.000000e+00
8.000004e-01 3.750008e-01 -2.500002e-02
8.000004e-01 3.958308e-01 -2.500002e-02
8.000004e-01 3.750008e-01 -3.300003e-02
8.000004e-01 3.958308e-01 -3.300003e-02
8.000004e-01 4.166708e-01 -3.300003e-02
8.000004e-01 4.166708e-01 -2.500002e-02
8.000004e-01 3.750008e-01 -4.200004e-02
8.000004e-01 3.958308e-01 -4.200004e-02
8.000004e-01 3.750008e-01 -5.000005e-02
8.000004e-01 3.958308e-01 -5.000005e-02
8.000004e-01 4.166708e-01 -5.000005e-02
8.000004e-01 4.166708e-01 -4.200004e-02
8.000004e-01 4.375008e-01 0.000000e+00
8.000004e-01 4.375008e-01 -8.300008e-03
8.000004e-01 4.375008e-01 -1.700002e-02
8.000004e-01 4.583308e-01 -1.700002e-02
8.000004e-01 4.583308e-01 -8.300008e-03
8.000004e-01 4.583308e-01 0.000000e+00
8.000004e-01 4.375008e-01 -2.500002e-02
8.000004e-01 4.375008e-01 -3.300003e-02
8.000004e-01 4.583308e-01 -3.300003e-02
8.000004e-01 4.583308e-01 -2.500002e-02
8.000004e-01 4.375008e-01 -4.200004e-02
8.000004e-01 4.375008e-01 -5.000005e-02
8.000004e-01 4.583308e-01 -5.000005e-02
8.000004e-01 4.583308e-01 -4.200004e-02
8.000005e-01 4.791708e-01 0.000000e+00
8.000005e-01 4.791708e-01 -8.300008e-03
8.000005e-01 4.791708e-01 -1.700002e-02
8.000005e-01 4.791708e-01 -2.500002e-02
8.000005e-01 4.791708e-01 -3.300003e-02
8.000005e-01 4.791708e-01 -4.200004e-02
8.000005e-01 4.791708e-01 -5.000005e-02
8.000003e-01 2.500008e-01 0.000000e+00
8.000003e-01 2.500008e-01 -8.300008e-03
8.000003e-01 2.708308e-01 0.000000e+00
8.000003e-01 2.708308e-01 -8.300008e-03
8.000003e-01 2.500008e-01 -1.700002e-02
8.000003e-01 2.708308e-01 -1.700002e-02
8.000003e-01 2.916708e-01 -1.700002e-02
8.000003e-01 2.916708e-01 -8.300008e-03
8.000003e-01 2.916708e-01 0.000000e+00
8.000003e-01 2.500008e-01 -2.500002e-02
8.000003e-01 2.708308e-01 -2.500002e-02
8.000003e-01 2.500008e-01 -3.300003e-02
8.000003e-01 2.708308e-01 -3.300003e-02
8.000003e-01 2.916708e-01 -3.300003e-02
8.000003e-01 2.916708e-01 -2.500002e-02
8.000003e-01 2.500008e-01 -4.200004e-02
8.000003e-01 2.708308e-01 -4.200004e-02
8.000003e-01 2.500008e-01 -5.000005e-02
8.000003e-01 2.708308e-01 -5.000005e-02
8.000003e-01 2.916708e-01 -5.000005e-02
8.000003e-01 2.916708e-01 -4.200004e-02
8.000003e-01 3.125008e-01 0.000000e+00
8.000003e-01 3.125008e-01 -8.300008e-03
8.000003e-01 3.125008e-01 -1.700002e-02
8.000003e-01 3.333308e-01 -1.700002e-02
8.000003e-01 3.333308e-01 -8.300008e-03
8.000003e-01 3.333308e-01 0.000000e+00
8.000003e-01 3.125008e-01 -2.500002e-02
8.000003e-01 3.125008e-01 -3.300003e-02
8.000003e-01 3.333308e-01 -3.300003e-02
8.000003e-01 3.333308e-01 -2.500002e-02
[...]
POINT_DATA 4165
SCALARS u double 1
LOOKUP_TABLE default
3.588e-03
3.592e-03
3.530e-03
3.534e-03
3.595e-03
3.538e-03
3.488e-03
3.484e-03
3.479e-03
3.598e-03
3.542e-03
3.600e-03
3.544e-03
3.495e-03
3.492e-03
3.602e-03
3.547e-03
3.604e-03
3.549e-03
3.500e-03
3.498e-03
3.437e-03
3.442e-03
3.446e-03
3.414e-03
3.410e-03
3.406e-03
3.450e-03
3.453e-03
3.421e-03
3.418e-03
3.456e-03
3.458e-03
3.425e-03
3.423e-03
3.387e-03
3.390e-03
3.392e-03
3.377e-03
3.378e-03
3.378e-03
3.395e-03
3.396e-03
3.377e-03
3.377e-03
3.398e-03
3.399e-03
3.379e-03
3.378e-03
4.012e-03
4.007e-03
3.940e-03
3.936e-03
4.001e-03
3.932e-03
3.862e-03
3.864e-03
3.866e-03
3.997e-03
3.929e-03
3.992e-03
3.926e-03
3.859e-03
3.860e-03
3.987e-03
3.922e-03
3.982e-03
3.919e-03
3.854e-03
3.856e-03
3.793e-03
3.793e-03
3.792e-03
3.724e-03
3.723e-03
3.721e-03
3.792e-03
3.791e-03
3.725e-03
3.724e-03
3.790e-03
3.790e-03
3.726e-03
3.725e-03
3.652e-03
3.655e-03
3.658e-03
3.659e-03
3.661e-03
3.662e-03
3.663e-03
4.372e-03
4.359e-03
4.325e-03
4.313e-03
4.346e-03
4.301e-03
4.249e-03
4.261e-03
4.272e-03
4.334e-03
4.290e-03
4.323e-03
4.279e-03
4.230e-03
4.240e-03
4.310e-03
4.267e-03
4.299e-03
4.257e-03
4.210e-03
4.219e-03
4.213e-03
4.203e-03
4.193e-03
4.133e-03
4.141e-03
4.150e-03
4.185e-03
4.176e-03
4.118e-03
4.125e-03
4.167e-03
4.159e-03
4.103e-03
4.110e-03
4.082e-03
4.076e-03
4.069e-03
4.062e-03
4.056e-03
4.050e-03
4.044e-03
4.509e-03
4.493e-03
4.505e-03
4.489e-03
4.477e-03
4.473e-03
4.462e-03
4.478e-03
4.493e-03
4.463e-03
4.459e-03
4.449e-03
4.445e-03
4.435e-03
4.448e-03
4.434e-03
4.430e-03
4.421e-03
4.418e-03
4.407e-03
4.420e-03
4.474e-03
4.459e-03
4.443e-03
4.418e-03
4.433e-03
4.447e-03
4.430e-03
4.417e-03
4.392e-03
4.405e-03
4.402e-03
4.390e-03
4.366e-03
4.378e-03
4.413e-03
4.399e-03
4.385e-03
4.373e-03
4.360e-03
4.347e-03
4.336e-03
4.372e-03
4.359e-03
4.413e-03
4.399e-03
4.346e-03
4.385e-03
4.418e-03
4.433e-03
4.447e-03
4.334e-03
4.373e-03
4.323e-03
4.360e-03
4.392e-03
4.405e-03
4.310e-03
4.347e-03
4.299e-03
4.336e-03
4.366e-03
4.378e-03
4.474e-03
4.459e-03
4.443e-03
4.462e-03
4.478e-03
4.493e-03
4.430e-03
4.417e-03
4.435e-03
4.448e-03
4.402e-03
4.390e-03
4.407e-03
4.420e-03
4.505e-03
4.489e-03
4.473e-03
4.459e-03
4.445e-03
4.430e-03
4.418e-03
4.012e-03
4.007e-03
4.082e-03
4.076e-03
4.001e-03
4.069e-03
4.133e-03
4.141e-03
4.150e-03
3.997e-03
4.062e-03
3.992e-03
4.056e-03
4.118e-03
4.125e-03
3.987e-03
4.050e-03
3.982e-03
4.044e-03
4.103e-03
4.110e-03
4.213e-03
4.203e-03
4.193e-03
4.249e-03
4.261e-03
4.272e-03
4.185e-03
4.176e-03
4.230e-03
4.240e-03
4.167e-03
4.159e-03
4.210e-03
4.219e-03
4.325e-03
4.313e-03
4.301e-03
4.290e-03
4.279e-03
4.267e-03
4.257e-03
3.588e-03
3.592e-03
3.652e-03
3.655e-03
3.595e-03
3.658e-03
3.724e-03
3.723e-03
3.721e-03
3.598e-03
3.659e-03
3.600e-03
3.661e-03
3.725e-03
3.724e-03
3.602e-03
3.662e-03
3.604e-03
3.663e-03
3.726e-03
3.725e-03
3.793e-03
3.793e-03
3.792e-03
3.862e-03
3.864e-03
3.866e-03
3.792e-03
3.791e-03
3.859e-03
3.860e-03
3.790e-03
3.790e-03
3.854e-03
3.856e-03
3.940e-03
3.936e-03
3.932e-03
3.929e-03
3.926e-03
3.922e-03
3.919e-03
3.378e-03
3.378e-03
3.387e-03
3.390e-03
3.377e-03
3.392e-03
3.414e-03
3.410e-03
3.406e-03
3.377e-03
3.395e-03
3.377e-03
3.396e-03
3.421e-03
3.418e-03
3.378e-03
3.398e-03
3.379e-03
3.399e-03
3.425e-03
3.423e-03
3.437e-03
3.442e-03
3.446e-03
3.488e-03
3.484e-03
3.479e-03
3.450e-03
3.453e-03
3.495e-03
3.492e-03
3.456e-03
3.458e-03
3.500e-03
3.498e-03
3.530e-03
3.534e-03
3.538e-03
3.542e-03
3.544e-03
3.547e-03
3.549e-03
3.698e-03
3.635e-03
3.578e-03
3.676e-03
3.738e-03
3.808e-03
3.532e-03
3.496e-03
3.586e-03
3.625e-03
3.472e-03
3.491e-03
3.572e-03
3.571e-03
3.916e-03
3.840e-03
3.772e-03
3.867e-03
3.940e-03
4.023e-03
3.717e-03
3.678e-03
3.765e-03
3.807e-03
3.654e-03
3.644e-03
3.713e-03
3.733e-03
4.130e-03
4.040e-03
3.960e-03
4.051e-03
4.140e-03
4.237e-03
3.892e-03
3.842e-03
3.915e-03
3.975e-03
3.815e-03
3.781e-03
3.858e-03
3.876e-03
4.344e-03
4.239e-03
4.143e-03
4.235e-03
4.339e-03
4.451e-03
4.057e-03
3.986e-03
4.058e-03
4.141e-03
3.935e-03
3.930e-03
3.984e-03
4.006e-03
4.559e-03
4.440e-03
4.329e-03
4.423e-03
4.541e-03
4.668e-03
4.229e-03
4.138e-03
4.227e-03
4.319e-03
4.067e-03
4.028e-03
4.058e-03
4.131e-03
4.778e-03
4.643e-03
4.518e-03
4.614e-03
4.747e-03
4.889e-03
4.407e-03
4.313e-03
4.391e-03
4.493e-03
4.218e-03
4.073e-03
4.075e-03
4.292e-03
4.884e-03
4.778e-03
5.030e-03
4.918e-03
4.669e-03
4.804e-03
4.938e-03
5.059e-03
5.176e-03
4.559e-03
4.687e-03
4.449e-03
4.570e-03
4.692e-03
4.815e-03
4.341e-03
4.455e-03
4.570e-03
5.323e-03
5.200e-03
5.074e-03
5.209e-03
5.342e-03
5.469e-03
4.945e-03
4.814e-03
4.937e-03
5.074e-03
4.685e-03
4.801e-03
5.615e-03
5.483e-03
5.345e-03
5.481e-03
5.623e-03
5.760e-03
5.204e-03
5.061e-03
5.185e-03
5.334e-03
4.918e-03
5.036e-03
5.393e-03
5.327e-03
5.563e-03
5.495e-03
5.253e-03
5.417e-03
5.581e-03
5.662e-03
5.733e-03
5.171e-03
5.331e-03
5.081e-03
5.237e-03
5.393e-03
5.491e-03
4.985e-03
5.136e-03
5.288e-03
5.903e-03
5.829e-03
5.745e-03
5.907e-03
5.995e-03
6.071e-03
5.651e-03
5.549e-03
5.705e-03
5.811e-03
5.439e-03
5.590e-03
6.238e-03
6.159e-03
6.069e-03
6.229e-03
6.322e-03
6.404e-03
5.969e-03
5.859e-03
6.013e-03
6.126e-03
5.741e-03
5.890e-03
5.580e-03
5.575e-03
5.759e-03
5.753e-03
5.559e-03
5.736e-03
5.913e-03
5.931e-03
5.936e-03
5.532e-03
5.709e-03
5.496e-03
5.671e-03
5.845e-03
5.885e-03
5.449e-03
5.622e-03
5.794e-03
6.113e-03
6.107e-03
6.090e-03
6.265e-03
6.283e-03
6.289e-03
6.060e-03
6.019e-03
6.191e-03
6.234e-03
5.966e-03
6.137e-03
6.463e-03
6.457e-03
6.438e-03
6.609e-03
6.629e-03
6.635e-03
6.406e-03
6.362e-03
6.531e-03
6.577e-03
6.306e-03
6.474e-03
5.393e-03
5.449e-03
5.563e-03
5.622e-03
5.496e-03
5.671e-03
5.845e-03
5.794e-03
5.733e-03
5.532e-03
5.709e-03
5.559e-03
5.736e-03
5.913e-03
5.885e-03
5.575e-03
5.753e-03
5.931e-03
5.903e-03
5.966e-03
6.019e-03
6.191e-03
6.137e-03
6.071e-03
6.060e-03
6.090e-03
6.265e-03
6.234e-03
6.107e-03
6.283e-03
6.238e-03
6.306e-03
6.362e-03
6.531e-03
6.474e-03
6.404e-03
6.406e-03
6.438e-03
6.609e-03
6.577e-03
6.457e-03
6.629e-03
4.884e-03
4.985e-03
5.030e-03
5.136e-03
5.081e-03
5.237e-03
5.393e-03
5.288e-03
5.176e-03
5.171e-03
5.331e-03
5.253e-03
5.417e-03
5.581e-03
5.491e-03
5.327e-03
5.495e-03
5.662e-03
5.323e-03
5.439e-03
5.549e-03
5.705e-03
5.590e-03
5.469e-03
5.651e-03
5.745e-03
5.907e-03
5.811e-03
5.829e-03
5.995e-03
5.615e-03
5.741e-03
5.859e-03
6.013e-03
5.890e-03
5.760e-03
5.969e-03
6.069e-03
6.229e-03
6.126e-03
6.159e-03
6.322e-03
4.237e-03
4.341e-03
4.344e-03
4.455e-03
4.449e-03
4.570e-03
4.692e-03
4.570e-03
4.451e-03
4.559e-03
4.687e-03
4.669e-03
4.804e-03
4.938e-03
4.815e-03
4.778e-03
4.918e-03
5.059e-03
4.559e-03
4.685e-03
4.814e-03
4.937e-03
4.801e-03
4.668e-03
4.945e-03
5.074e-03
5.210e-03
5.074e-03
5.200e-03
5.342e-03
4.778e-03
4.918e-03
5.061e-03
5.185e-03
5.036e-03
4.889e-03
5.204e-03
5.345e-03
5.481e-03
5.334e-03
5.483e-03
5.623e-03
3.858e-03
3.876e-03
3.930e-03
3.935e-03
3.915e-03
3.986e-03
4.058e-03
4.006e-03
3.984e-03
3.975e-03
4.057e-03
4.051e-03
4.143e-03
4.235e-03
4.141e-03
4.140e-03
4.239e-03
4.339e-03
4.028e-03
4.067e-03
4.139e-03
4.227e-03
4.131e-03
4.058e-03
4.229e-03
4.329e-03
4.423e-03
4.319e-03
4.440e-03
4.541e-03
4.073e-03
4.218e-03
4.313e-03
4.391e-03
4.292e-03
4.075e-03
4.407e-03
4.518e-03
4.614e-03
4.493e-03
4.643e-03
4.747e-03
4.157e-03
4.079e-03
4.000e-03
4.134e-03
4.218e-03
4.302e-03
3.921e-03
3.843e-03
3.965e-03
4.049e-03
3.769e-03
3.884e-03
4.447e-03
4.358e-03
4.267e-03
4.401e-03
4.498e-03
4.592e-03
4.176e-03
4.086e-03
4.207e-03
4.303e-03
3.999e-03
4.113e-03
4.738e-03
4.637e-03
4.535e-03
4.431e-03
4.328e-03
4.227e-03
4.542e-03
4.491e-03
4.435e-03
4.598e-03
4.658e-03
4.711e-03
4.372e-03
4.304e-03
4.459e-03
4.531e-03
4.232e-03
4.382e-03
4.881e-03
4.825e-03
4.761e-03
4.925e-03
4.992e-03
5.052e-03
4.691e-03
4.614e-03
4.770e-03
4.850e-03
4.532e-03
4.683e-03
5.222e-03
5.160e-03
5.089e-03
5.010e-03
4.925e-03
4.834e-03
4.687e-03
4.683e-03
4.670e-03
4.847e-03
4.861e-03
4.865e-03
4.650e-03
4.621e-03
4.796e-03
4.826e-03
4.585e-03
4.757e-03
5.044e-03
5.039e-03
5.025e-03
5.203e-03
5.218e-03
5.222e-03
5.002e-03
4.971e-03
5.146e-03
5.179e-03
4.930e-03
5.103e-03
5.401e-03
5.396e-03
5.381e-03
5.356e-03
5.321e-03
5.276e-03
4.542e-03
4.585e-03
4.621e-03
4.796e-03
4.757e-03
4.711e-03
4.650e-03
4.670e-03
4.847e-03
4.826e-03
4.683e-03
4.861e-03
4.881e-03
4.930e-03
4.971e-03
5.146e-03
5.103e-03
5.052e-03
5.002e-03
5.025e-03
5.203e-03
5.179e-03
5.039e-03
5.218e-03
5.222e-03
5.276e-03
5.321e-03
5.356e-03
5.381e-03
5.396e-03
4.157e-03
4.232e-03
4.304e-03
4.459e-03
4.382e-03
4.302e-03
4.372e-03
4.435e-03
4.598e-03
4.531e-03
4.491e-03
4.658e-03
4.447e-03
4.532e-03
4.614e-03
4.770e-03
4.683e-03
4.592e-03
4.691e-03
4.761e-03
4.925e-03
4.850e-03
4.825e-03
4.992e-03
4.738e-03
4.834e-03
4.925e-03
5.010e-03
5.089e-03
5.160e-03
3.698e-03
3.769e-03
3.843e-03
3.965e-03
3.884e-03
3.808e-03
3.921e-03
4.000e-03
4.134e-03
4.049e-03
4.079e-03
4.218e-03
3.916e-03
3.999e-03
4.086e-03
4.207e-03
4.113e-03
4.023e-03
4.176e-03
4.267e-03
4.401e-03
4.303e-03
4.358e-03
4.498e-03
4.130e-03
4.227e-03
4.328e-03
4.431e-03
4.535e-03
4.637e-03
3.491e-03
3.472e-03
3.496e-03
3.586e-03
3.571e-03
3.572e-03
3.532e-03
3.578e-03
3.676e-03
3.625e-03
3.635e-03
3.738e-03
3.644e-03
3.654e-03
3.678e-03
3.765e-03
3.733e-03
3.713e-03
3.717e-03
3.772e-03
3.867e-03
3.807e-03
3.840e-03
3.940e-03
3.781e-03
3.815e-03
3.842e-03
3.892e-03
3.960e-03
4.040e-03
2.194e-03
2.195e-03
2.180e-03
2.181e-03
2.196e-03
2.181e-03
2.169e-03
2.168e-03
2.167e-03
2.197e-03
2.182e-03
2.198e-03
2.183e-03
2.170e-03
2.169e-03
2.198e-03
2.183e-03
2.199e-03
2.184e-03
2.171e-03
2.170e-03
2.158e-03
2.158e-03
2.159e-03
2.151e-03
2.151e-03
2.150e-03
2.159e-03
2.160e-03
2.152e-03
2.152e-03
2.160e-03
2.160e-03
2.152e-03
2.152e-03
2.146e-03
2.146e-03
2.147e-03
2.143e-03
2.144e-03
2.144e-03
2.147e-03
2.147e-03
2.143e-03
2.143e-03
2.147e-03
2.147e-03
2.142e-03
2.142e-03
2.307e-03
2.309e-03
2.287e-03
2.289e-03
2.312e-03
2.291e-03
2.270e-03
2.268e-03
2.267e-03
2.314e-03
2.293e-03
2.317e-03
2.295e-03
2.274e-03
2.272e-03
2.320e-03
2.298e-03
2.322e-03
2.300e-03
2.278e-03
2.276e-03
2.247e-03
2.249e-03
2.250e-03
2.231e-03
2.229e-03
2.228e-03
2.252e-03
2.253e-03
2.233e-03
2.232e-03
2.255e-03
2.256e-03
2.235e-03
2.234e-03
2.210e-03
2.211e-03
2.213e-03
2.214e-03
2.215e-03
2.215e-03
2.216e-03
2.411e-03
2.416e-03
2.397e-03
2.402e-03
2.421e-03
2.406e-03
2.390e-03
2.386e-03
2.381e-03
2.426e-03
2.411e-03
2.431e-03
2.415e-03
2.398e-03
2.394e-03
2.436e-03
2.420e-03
2.441e-03
2.425e-03
2.407e-03
2.403e-03
2.364e-03
2.368e-03
2.372e-03
2.353e-03
2.349e-03
2.346e-03
2.376e-03
2.379e-03
2.359e-03
2.356e-03
2.383e-03
2.387e-03
2.366e-03
2.363e-03
2.327e-03
2.330e-03
2.333e-03
2.336e-03
2.338e-03
2.342e-03
2.345e-03
2.452e-03
2.458e-03
2.451e-03
2.457e-03
2.465e-03
2.463e-03
2.460e-03
2.454e-03
2.448e-03
2.471e-03
2.469e-03
2.476e-03
2.475e-03
2.471e-03
2.465e-03
2.483e-03
2.482e-03
2.489e-03
2.488e-03
2.484e-03
2.478e-03
2.442e-03
2.448e-03
2.453e-03
2.445e-03
2.439e-03
2.434e-03
2.459e-03
2.465e-03
2.456e-03
2.450e-03
2.471e-03
2.477e-03
2.468e-03
2.462e-03
2.424e-03
2.429e-03
2.434e-03
2.439e-03
2.444e-03
2.450e-03
2.456e-03
2.411e-03
2.416e-03
2.424e-03
2.429e-03
2.421e-03
2.434e-03
2.445e-03
2.439e-03
2.434e-03
2.426e-03
2.439e-03
2.431e-03
2.444e-03
2.456e-03
2.450e-03
2.436e-03
2.450e-03
2.441e-03
2.456e-03
2.468e-03
2.462e-03
2.442e-03
2.448e-03
2.453e-03
2.460e-03
2.454e-03
2.448e-03
2.459e-03
2.465e-03
2.471e-03
2.465e-03
2.471e-03
2.477e-03
2.484e-03
2.478e-03
2.451e-03
2.457e-03
2.463e-03
2.469e-03
2.475e-03
2.482e-03
2.488e-03
2.307e-03
2.309e-03
2.327e-03
2.330e-03
2.312e-03
2.333e-03
2.353e-03
2.349e-03
2.346e-03
2.314e-03
2.336e-03
2.317e-03
2.338e-03
2.359e-03
2.356e-03
2.320e-03
2.342e-03
2.322e-03
2.345e-03
2.366e-03
2.363e-03
2.364e-03
2.368e-03
2.372e-03
2.390e-03
2.386e-03
2.381e-03
2.376e-03
2.379e-03
2.398e-03
2.394e-03
2.383e-03
2.387e-03
2.407e-03
2.403e-03
2.397e-03
2.402e-03
2.406e-03
2.411e-03
2.415e-03
2.420e-03
2.425e-03
2.194e-03
2.195e-03
2.210e-03
2.211e-03
2.196e-03
2.213e-03
2.231e-03
2.229e-03
2.228e-03
2.197e-03
2.214e-03
2.198e-03
2.214e-03
2.233e-03
2.232e-03
2.198e-03
2.215e-03
2.199e-03
2.216e-03
2.235e-03
2.234e-03
2.247e-03
2.249e-03
2.250e-03
2.270e-03
2.268e-03
2.267e-03
2.252e-03
2.253e-03
2.274e-03
2.272e-03
2.255e-03
2.256e-03
2.278e-03
2.276e-03
2.287e-03
2.289e-03
2.291e-03
2.293e-03
2.295e-03
2.298e-03
2.300e-03
2.144e-03
2.144e-03
2.146e-03
2.146e-03
2.143e-03
2.147e-03
2.151e-03
2.151e-03
2.150e-03
2.143e-03
2.147e-03
2.143e-03
2.147e-03
2.152e-03
2.152e-03
2.142e-03
2.147e-03
2.142e-03
2.147e-03
2.152e-03
2.152e-03
2.158e-03
2.158e-03
2.159e-03
2.169e-03
2.168e-03
2.167e-03
2.159e-03
2.160e-03
2.170e-03
2.169e-03
2.160e-03
2.160e-03
2.171e-03
2.170e-03
2.180e-03
2.180e-03
2.181e-03
2.182e-03
2.183e-03
2.183e-03
2.184e-03
2.316e-03
2.299e-03
2.284e-03
2.399e-03
2.416e-03
2.436e-03
2.271e-03
2.261e-03
2.374e-03
2.385e-03
2.254e-03
2.281e-03
2.387e-03
2.377e-03
2.556e-03
2.533e-03
2.514e-03
2.627e-03
2.648e-03
2.674e-03
2.499e-03
2.490e-03
2.602e-03
2.611e-03
2.487e-03
2.486e-03
2.585e-03
2.594e-03
2.792e-03
2.763e-03
2.738e-03
2.848e-03
2.876e-03
2.908e-03
2.719e-03
2.707e-03
2.809e-03
2.825e-03
2.704e-03
2.684e-03
2.794e-03
2.799e-03
3.024e-03
2.988e-03
2.956e-03
3.064e-03
3.098e-03
3.138e-03
2.930e-03
2.909e-03
3.009e-03
3.034e-03
2.892e-03
2.902e-03
2.996e-03
2.997e-03
3.252e-03
3.208e-03
3.170e-03
3.274e-03
3.316e-03
3.364e-03
3.138e-03
3.113e-03
3.217e-03
3.241e-03
3.095e-03
3.086e-03
3.172e-03
3.192e-03
3.476e-03
3.423e-03
3.377e-03
3.340e-03
3.314e-03
3.299e-03
3.262e-03
3.156e-03
3.112e-03
3.297e-03
3.249e-03
3.068e-03
3.201e-03
3.333e-03
3.386e-03
3.439e-03
3.025e-03
3.153e-03
2.984e-03
3.107e-03
3.231e-03
3.281e-03
2.944e-03
3.064e-03
3.182e-03
3.581e-03
3.524e-03
3.466e-03
3.599e-03
3.662e-03
3.724e-03
3.409e-03
3.353e-03
3.476e-03
3.537e-03
3.301e-03
3.418e-03
3.868e-03
3.800e-03
3.732e-03
3.665e-03
3.598e-03
3.535e-03
3.378e-03
3.348e-03
3.541e-03
3.508e-03
3.315e-03
3.472e-03
3.630e-03
3.670e-03
3.705e-03
3.278e-03
3.432e-03
3.239e-03
3.389e-03
3.540e-03
3.586e-03
3.198e-03
3.344e-03
3.490e-03
3.870e-03
3.832e-03
3.789e-03
3.949e-03
3.995e-03
4.036e-03
3.742e-03
3.691e-03
3.843e-03
3.898e-03
3.637e-03
3.785e-03
4.204e-03
4.159e-03
4.110e-03
4.055e-03
3.996e-03
3.933e-03
3.464e-03
3.461e-03
3.635e-03
3.632e-03
3.454e-03
3.624e-03
3.796e-03
3.804e-03
3.807e-03
3.442e-03
3.611e-03
3.425e-03
3.593e-03
3.761e-03
3.781e-03
3.403e-03
3.569e-03
3.736e-03
3.981e-03
3.978e-03
3.968e-03
4.142e-03
4.152e-03
4.156e-03
3.953e-03
3.931e-03
4.102e-03
4.125e-03
3.903e-03
4.072e-03
4.331e-03
4.328e-03
4.317e-03
4.299e-03
4.274e-03
4.242e-03
3.378e-03
3.403e-03
3.541e-03
3.569e-03
3.425e-03
3.593e-03
3.761e-03
3.736e-03
3.705e-03
3.442e-03
3.611e-03
3.454e-03
3.624e-03
3.796e-03
3.781e-03
3.461e-03
3.632e-03
3.804e-03
3.870e-03
3.903e-03
3.931e-03
4.102e-03
4.072e-03
4.036e-03
3.953e-03
3.968e-03
4.142e-03
4.125e-03
3.978e-03
4.152e-03
4.204e-03
4.242e-03
4.274e-03
4.299e-03
4.317e-03
4.328e-03
3.156e-03
3.198e-03
3.297e-03
3.344e-03
3.239e-03
3.389e-03
3.540e-03
3.490e-03
3.439e-03
3.278e-03
3.432e-03
3.315e-03
3.472e-03
3.630e-03
3.586e-03
3.348e-03
3.508e-03
3.670e-03
3.581e-03
3.637e-03
3.691e-03
3.843e-03
3.785e-03
3.724e-03
3.742e-03
3.789e-03
3.949e-03
3.898e-03
3.832e-03
3.995e-03
3.868e-03
3.933e-03
3.996e-03
4.055e-03
4.110e-03
4.159e-03
2.908e-03
2.944e-03
3.024e-03
3.064e-03
2.984e-03
3.107e-03
3.231e-03
3.182e-03
3.138e-03
3.025e-03
3.153e-03
3.068e-03
3.201e-03
3.333e-03
3.281e-03
3.112e-03
3.249e-03
3.386e-03
3.252e-03
3.301e-03
3.353e-03
3.476e-03
3.418e-03
3.364e-03
3.409e-03
3.466e-03
3.599e-03
3.537e-03
3.524e-03
3.662e-03
3.476e-03
3.535e-03
3.598e-03
3.665e-03
3.732e-03
3.800e-03
2.794e-03
2.799e-03
2.902e-03
2.892e-03
2.809e-03
2.909e-03
3.009e-03
2.997e-03
2.996e-03
2.825e-03
2.930e-03
2.848e-03
2.956e-03
3.064e-03
3.034e-03
2.876e-03
2.988e-03
3.098e-03
3.086e-03
3.095e-03
3.113e-03
3.217e-03
3.192e-03
3.172e-03
3.138e-03
3.170e-03
3.274e-03
3.241e-03
3.208e-03
3.316e-03
3.262e-03
3.299e-03
3.314e-03
3.340e-03
3.377e-03
3.423e-03
2.449e-03
2.425e-03
2.402e-03
2.536e-03
2.563e-03
2.590e-03
2.378e-03
2.356e-03
2.483e-03
2.509e-03
2.335e-03
2.459e-03
2.732e-03
2.701e-03
2.669e-03
2.803e-03
2.838e-03
2.873e-03
2.639e-03
2.609e-03
2.735e-03
2.768e-03
2.581e-03
2.703e-03
3.014e-03
2.975e-03
2.936e-03
2.897e-03
2.860e-03
2.824e-03
2.572e-03
2.555e-03
2.537e-03
2.692e-03
2.713e-03
2.732e-03
2.516e-03
2.495e-03
2.643e-03
2.668e-03
2.472e-03
2.617e-03
2.893e-03
2.871e-03
2.847e-03
3.002e-03
3.029e-03
3.054e-03
2.820e-03
2.792e-03
2.941e-03
2.973e-03
2.762e-03
2.908e-03
3.215e-03
3.188e-03
3.158e-03
3.125e-03
3.090e-03
3.053e-03
2.620e-03
2.618e-03
2.614e-03
2.781e-03
2.786e-03
2.787e-03
2.607e-03
2.598e-03
2.762e-03
2.773e-03
2.586e-03
2.748e-03
2.956e-03
2.954e-03
2.948e-03
3.116e-03
3.122e-03
3.124e-03
2.939e-03
2.927e-03
3.092e-03
3.106e-03
2.911e-03
3.075e-03
3.294e-03
3.291e-03
3.285e-03
3.274e-03
3.258e-03
3.239e-03
2.572e-03
2.586e-03
2.598e-03
2.762e-03
2.748e-03
2.732e-03
2.607e-03
2.614e-03
2.781e-03
2.773e-03
2.618e-03
2.786e-03
2.893e-03
2.911e-03
2.927e-03
3.092e-03
3.075e-03
3.054e-03
2.939e-03
2.948e-03
3.116e-03
3.106e-03
2.954e-03
3.122e-03
3.215e-03
3.239e-03
3.258e-03
3.274e-03
3.285e-03
3.291e-03
2.449e-03
2.472e-03
2.495e-03
2.643e-03
2.617e-03
2.590e-03
2.516e-03
2.537e-03
2.692e-03
2.668e-03
2.555e-03
2.713e-03
2.732e-03
2.762e-03
2.792e-03
2.941e-03
2.908e-03
2.873e-03
2.820e-03
2.847e-03
3.002e-03
2.973e-03
2.871e-03
3.029e-03
3.014e-03
3.053e-03
3.090e-03
3.125e-03
3.158e-03
3.188e-03
2.316e-03
2.335e-03
2.356e-03
2.483e-03
2.459e-03
2.436e-03
2.378e-03
2.401e-03
2.536e-03
2.509e-03
2.425e-03
2.563e-03
2.556e-03
2.581e-03
2.609e-03
2.735e-03
2.703e-03
2.674e-03
2.639e-03
2.669e-03
2.803e-03
2.768e-03
2.701e-03
2.838e-03
2.792e-03
2.824e-03
2.860e-03
2.897e-03
2.936e-03
2.975e-03
2.281e-03
2.254e-03
2.261e-03
2.374e-03
2.377e-03
2.387e-03
2.271e-03
2.284e-03
2.399e-03
2.385e-03
2.299e-03
2.416e-03
2.486e-03
2.487e-03
2.490e-03
2.602e-03
2.594e-03
2.585e-03
2.499e-03
2.514e-03
2.627e-03
2.611e-03
2.533e-03
2.648e-03
2.684e-03
2.704e-03
2.707e-03
2.719e-03
2.738e-03
2.763e-03
7.277e-04
7.268e-04
7.421e-04
7.413e-04
7.258e-04
7.405e-04
7.530e-04
7.537e-04
7.544e-04
7.250e-04
7.398e-04
7.243e-04
7.392e-04
7.519e-04
7.524e-04
7.235e-04
7.387e-04
7.229e-04
7.383e-04
7.512e-04
7.515e-04
7.643e-04
7.636e-04
7.630e-04
7.704e-04
7.709e-04
7.715e-04
7.625e-04
7.621e-04
7.697e-04
7.700e-04
7.618e-04
7.616e-04
7.695e-04
7.695e-04
7.759e-04
7.755e-04
7.753e-04
7.785e-04
7.781e-04
7.779e-04
7.751e-04
7.751e-04
7.791e-04
7.788e-04
7.751e-04
7.752e-04
7.796e-04
7.794e-04
6.149e-04
6.124e-04
6.351e-04
6.329e-04
6.098e-04
6.306e-04
6.514e-04
6.533e-04
6.551e-04
6.073e-04
6.285e-04
6.048e-04
6.264e-04
6.478e-04
6.496e-04
6.020e-04
6.240e-04
5.994e-04
6.219e-04
6.441e-04
6.459e-04
6.748e-04
6.733e-04
6.716e-04
6.910e-04
6.924e-04
6.937e-04
6.702e-04
6.687e-04
6.887e-04
6.898e-04
6.671e-04
6.657e-04
6.863e-04
6.874e-04
7.114e-04
7.103e-04
7.092e-04
7.082e-04
7.073e-04
7.063e-04
7.055e-04
5.105e-04
5.056e-04
5.246e-04
5.201e-04
5.005e-04
5.153e-04
5.319e-04
5.362e-04
5.403e-04
4.958e-04
5.109e-04
4.909e-04
5.064e-04
5.237e-04
5.278e-04
4.854e-04
5.013e-04
4.804e-04
4.967e-04
5.148e-04
5.190e-04
5.575e-04
5.538e-04
5.499e-04
5.690e-04
5.725e-04
5.758e-04
5.462e-04
5.425e-04
5.625e-04
5.658e-04
5.383e-04
5.345e-04
5.553e-04
5.587e-04
5.951e-04
5.922e-04
5.891e-04
5.863e-04
5.834e-04
5.801e-04
5.771e-04
4.693e-04
4.633e-04
4.705e-04
4.645e-04
4.570e-04
4.583e-04
4.621e-04
4.682e-04
4.740e-04
4.512e-04
4.525e-04
4.453e-04
4.466e-04
4.506e-04
4.563e-04
4.385e-04
4.399e-04
4.324e-04
4.337e-04
4.379e-04
4.439e-04
4.799e-04
4.742e-04
4.683e-04
4.768e-04
4.825e-04
4.880e-04
4.627e-04
4.571e-04
4.661e-04
4.715e-04
4.506e-04
4.448e-04
4.542e-04
4.599e-04
4.982e-04
4.931e-04
4.876e-04
4.825e-04
4.774e-04
4.715e-04
4.662e-04
5.105e-04
5.056e-04
4.982e-04
4.931e-04
5.005e-04
4.876e-04