# vtk DataFile Version 3.0
vtk output
ASCII
DATASET UNSTRUCTURED_GRID
POINTS 4165 double
8.000000e-01 8.750000e-01 0.000000e+00
8.000000e-01 8.750000e-01 -8.300000e-03
8.000000e-01 8.958300e-01 0.000000e+00
8.000000e-01 8.958300e-01 -8.300000e-03
8.000000e-01 8.750000e-01 -1.700000e-02
8.000000e-01 8.958300e-01 -1.700000e-02
8.000000e-01 9.166700e-01 -1.700000e-02
8.000000e-01 9.166700e-01 -8.300000e-03
8.000000e-01 9.166700e-01 0.000000e+00
8.000000e-01 8.750000e-01 -2.500000e-02
8.000000e-01 8.958300e-01 -2.500000e-02
8.000000e-01 8.750000e-01 -3.300000e-02
8.000000e-01 8.958300e-01 -3.300000e-02
8.000000e-01 9.166700e-01 -3.300000e-02
8.000000e-01 9.166700e-01 -2.500000e-02
8.000000e-01 8.750000e-01 -4.200000e-02
8.000000e-01 8.958300e-01 -4.200000e-02
8.000000e-01 8.750000e-01 -5.000000e-02
8.000000e-01 8.958300e-01 -5.000000e-02
8.000000e-01 9.166700e-01 -5.000000e-02
8.000000e-01 9.166700e-01 -4.200000e-02
8.000000e-01 9.375000e-01 0.000000e+00
8.000000e-01 9.375000e-01 -8.300000e-03
8.000000e-01 9.375000e-01 -1.700000e-02
8.000000e-01 9.583300e-01 -1.700000e-02
8.000000e-01 9.583300e-01 -8.300000e-03
8.000000e-01 9.583300e-01 0.000000e+00
8.000000e-01 9.375000e-01 -2.500000e-02
8.000000e-01 9.375000e-01 -3.300000e-02
8.000000e-01 9.583300e-01 -3.300000e-02
8.000000e-01 9.583300e-01 -2.500000e-02
8.000000e-01 9.375000e-01 -4.200000e-02
8.000000e-01 9.375000e-01 -5.000000e-02
8.000000e-01 9.583300e-01 -5.000000e-02
8.000000e-01 9.583300e-01 -4.200000e-02
8.000000e-01 9.791700e-01 0.000000e+00
8.000000e-01 9.791700e-01 -8.300000e-03
8.000000e-01 9.791700e-01 -1.700000e-02
8.000000e-01 1.000000e+00 -1.700000e-02
8.000000e-01 1.000000e+00 -8.300000e-03
8.000000e-01 1.000000e+00 0.000000e+00
8.000000e-01 9.791700e-01 -2.500000e-02
8.000000e-01 9.791700e-01 -3.300000e-02
8.000000e-01 1.000000e+00 -3.300000e-02
8.000000e-01 1.000000e+00 -2.500000e-02
8.000000e-01 9.791700e-01 -4.200000e-02
8.000000e-01 9.791700e-01 -5.000000e-02
8.000000e-01 1.000000e+00 -5.000000e-02
8.000000e-01 1.000000e+00 -4.200000e-02
8.000000e-01 7.500000e-01 0.000000e+00
8.000000e-01 7.500000e-01 -8.300000e-03
8.000000e-01 7.708300e-01 0.000000e+00
8.000000e-01 7.708300e-01 -8.300000e-03
8.000000e-01 7.500000e-01 -1.700000e-02
8.000000e-01 7.708300e-01 -1.700000e-02
8.000000e-01 7.916700e-01 -1.700000e-02
8.000000e-01 7.916700e-01 -8.300000e-03
8.000000e-01 7.916700e-01 0.000000e+00
8.000000e-01 7.500000e-01 -2.500000e-02
8.000000e-01 7.708300e-01 -2.500000e-02
8.000000e-01 7.500000e-01 -3.300000e-02
8.000000e-01 7.708300e-01 -3.300000e-02
8.000000e-01 7.916700e-01 -3.300000e-02
8.000000e-01 7.916700e-01 -2.500000e-02
8.000000e-01 7.500000e-01 -4.200000e-02
8.000000e-01 7.708300e-01 -4.200000e-02
8.000000e-01 7.500000e-01 -5.000000e-02
8.000000e-01 7.708300e-01 -5.000000e-02
8.000000e-01 7.916700e-01 -5.000000e-02
8.000000e-01 7.916700e-01 -4.200000e-02
8.000000e-01 8.125000e-01 0.000000e+00
8.000000e-01 8.125000e-01 -8.300000e-03
8.000000e-01 8.125000e-01 -1.700000e-02
8.000000e-01 8.333300e-01 -1.700000e-02
8.000000e-01 8.333300e-01 -8.300000e-03
8.000000e-01 8.333300e-01 0.000000e+00
8.000000e-01 8.125000e-01 -2.500000e-02
8.000000e-01 8.125000e-01 -3.300000e-02
8.000000e-01 8.333300e-01 -3.300000e-02
8.000000e-01 8.333300e-01 -2.500000e-02
8.000000e-01 8.125000e-01 -4.200000e-02
8.000000e-01 8.125000e-01 -5.000000e-02
8.000000e-01 8.333300e-01 -5.000000e-02
8.000000e-01 8.333300e-01 -4.200000e-02
8.000000e-01 8.541700e-01 0.000000e+00
8.000000e-01 8.541700e-01 -8.300000e-03
8.000000e-01 8.541700e-01 -1.700000e-02
8.000000e-01 8.541700e-01 -2.500000e-02
8.000000e-01 8.541700e-01 -3.300000e-02
8.000000e-01 8.541700e-01 -4.200000e-02
8.000000e-01 8.541700e-01 -5.000000e-02
8.000000e-01 6.250000e-01 0.000000e+00
8.000000e-01 6.250000e-01 -8.300000e-03
8.000000e-01 6.458300e-01 0.000000e+00
8.000000e-01 6.458300e-01 -8.300000e-03
8.000000e-01 6.250000e-01 -1.700000e-02
8.000000e-01 6.458300e-01 -1.700000e-02
8.000000e-01 6.666700e-01 -1.700000e-02
8.000000e-01 6.666700e-01 -8.300000e-03
8.000000e-01 6.666700e-01 0.000000e+00
8.000000e-01 6.250000e-01 -2.500000e-02
8.000000e-01 6.458300e-01 -2.500000e-02
8.000000e-01 6.250000e-01 -3.300000e-02
8.000000e-01 6.458300e-01 -3.300000e-02
8.000000e-01 6.666700e-01 -3.300000e-02
8.000000e-01 6.666700e-01 -2.500000e-02
8.000000e-01 6.250000e-01 -4.200000e-02
8.000000e-01 6.458300e-01 -4.200000e-02
8.000000e-01 6.250000e-01 -5.000000e-02
8.000000e-01 6.458300e-01 -5.000000e-02
8.000000e-01 6.666700e-01 -5.000000e-02
8.000000e-01 6.666700e-01 -4.200000e-02
8.000000e-01 6.875000e-01 0.000000e+00
8.000000e-01 6.875000e-01 -8.300000e-03
8.000000e-01 6.875000e-01 -1.700000e-02
8.000000e-01 7.083300e-01 -1.700000e-02
8.000000e-01 7.083300e-01 -8.300000e-03
8.000000e-01 7.083300e-01 0.000000e+00
8.000000e-01 6.875000e-01 -2.500000e-02
8.000000e-01 6.875000e-01 -3.300000e-02
8.000000e-01 7.083300e-01 -3.300000e-02
8.000000e-01 7.083300e-01 -2.500000e-02
8.000000e-01 6.875000e-01 -4.200000e-02
8.000000e-01 6.875000e-01 -5.000000e-02
8.000000e-01 7.083300e-01 -5.000000e-02
8.000000e-01 7.083300e-01 -4.200000e-02
8.000000e-01 7.291700e-01 0.000000e+00
8.000000e-01 7.291700e-01 -8.300000e-03
8.000000e-01 7.291700e-01 -1.700000e-02
8.000000e-01 7.291700e-01 -2.500000e-02
8.000000e-01 7.291700e-01 -3.300000e-02
8.000000e-01 7.291700e-01 -4.200000e-02
8.000000e-01 7.291700e-01 -5.000000e-02
8.000000e-01 5.000000e-01 0.000000e+00
8.000000e-01 5.000000e-01 -8.300000e-03
8.000000e-01 5.208300e-01 0.000000e+00
8.000000e-01 5.208300e-01 -8.300000e-03
8.000000e-01 5.000000e-01 -1.700000e-02
8.000000e-01 5.208300e-01 -1.700000e-02
8.000000e-01 5.416700e-01 -1.700000e-02
8.000000e-01 5.416700e-01 -8.300000e-03
8.000000e-01 5.416700e-01 0.000000e+00
8.000000e-01 5.000000e-01 -2.500000e-02
8.000000e-01 5.208300e-01 -2.500000e-02
8.000000e-01 5.000000e-01 -3.300000e-02
8.000000e-01 5.208300e-01 -3.300000e-02
8.000000e-01 5.416700e-01 -3.300000e-02
8.000000e-01 5.416700e-01 -2.500000e-02
8.000000e-01 5.000000e-01 -4.200000e-02
8.000000e-01 5.208300e-01 -4.200000e-02
8.000000e-01 5.000000e-01 -5.000000e-02
8.000000e-01 5.208300e-01 -5.000000e-02
8.000000e-01 5.416700e-01 -5.000000e-02
8.000000e-01 5.416700e-01 -4.200000e-02
8.000000e-01 5.625000e-01 0.000000e+00
8.000000e-01 5.625000e-01 -8.300000e-03
8.000000e-01 5.625000e-01 -1.700000e-02
8.000000e-01 5.833300e-01 -1.700000e-02
8.000000e-01 5.833300e-01 -8.300000e-03
8.000000e-01 5.833300e-01 0.000000e+00
8.000000e-01 5.625000e-01 -2.500000e-02
8.000000e-01 5.625000e-01 -3.300000e-02
8.000000e-01 5.833300e-01 -3.300000e-02
8.000000e-01 5.833300e-01 -2.500000e-02
8.000000e-01 5.625000e-01 -4.200000e-02
8.000000e-01 5.625000e-01 -5.000000e-02
8.000000e-01 5.833300e-01 -5.000000e-02
8.000000e-01 5.833300e-01 -4.200000e-02
8.000000e-01 6.041700e-01 0.000000e+00
8.000000e-01 6.041700e-01 -8.300000e-03
8.000000e-01 6.041700e-01 -1.700000e-02
8.000000e-01 6.041700e-01 -2.500000e-02
8.000000e-01 6.041700e-01 -3.300000e-02
8.000000e-01 6.041700e-01 -4.200000e-02
8.000000e-01 6.041700e-01 -5.000000e-02
8.000000e-01 3.750000e-01 0.000000e+00
8.000000e-01 3.750000e-01 -8.300000e-03
8.000000e-01 3.958300e-01 0.000000e+00
8.000000e-01 3.958300e-01 -8.300000e-03
8.000000e-01 3.750000e-01 -1.700000e-02
8.000000e-01 3.958300e-01 -1.700000e-02
8.000000e-01 4.166700e-01 -1.700000e-02
8.000000e-01 4.166700e-01 -8.300000e-03
8.000000e-01 4.166700e-01 0.000000e+00
8.000000e-01 3.750000e-01 -2.500000e-02
8.000000e-01 3.958300e-01 -2.500000e-02
8.000000e-01 3.750000e-01 -3.300000e-02
8.000000e-01 3.958300e-01 -3.300000e-02
8.000000e-01 4.166700e-01 -3.300000e-02
8.000000e-01 4.166700e-01 -2.500000e-02
8.000000e-01 3.750000e-01 -4.200000e-02
8.000000e-01 3.958300e-01 -4.200000e-02
8.000000e-01 3.750000e-01 -5.000000e-02
8.000000e-01 3.958300e-01 -5.000000e-02
8.000000e-01 4.166700e-01 -5.000000e-02
8.000000e-01 4.166700e-01 -4.200000e-02
8.000000e-01 4.375000e-01 0.000000e+00
8.000000e-01 4.375000e-01 -8.300000e-03
8.000000e-01 4.375000e-01 -1.700000e-02
8.000000e-01 4.583300e-01 -1.700000e-02
8.000000e-01 4.583300e-01 -8.300000e-03
8.000000e-01 4.583300e-01 0.000000e+00
8.000000e-01 4.375000e-01 -2.500000e-02
8.000000e-01 4.375000e-01 -3.300000e-02
8.000000e-01 4.583300e-01 -3.300000e-02
8.000000e-01 4.583300e-01 -2.500000e-02
8.000000e-01 4.375000e-01 -4.200000e-02
8.000000e-01 4.375000e-01 -5.000000e-02
8.000000e-01 4.583300e-01 -5.000000e-02
8.000000e-01 4.583300e-01 -4.200000e-02
8.000000e-01 4.791700e-01 0.000000e+00
8.000000e-01 4.791700e-01 -8.300000e-03
8.000000e-01 4.791700e-01 -1.700000e-02
8.000000e-01 4.791700e-01 -2.500000e-02
8.000000e-01 4.791700e-01 -3.300000e-02
8.000000e-01 4.791700e-01 -4.200000e-02
8.000000e-01 4.791700e-01 -5.000000e-02
8.000000e-01 2.500000e-01 0.000000e+00
8.000000e-01 2.500000e-01 -8.300000e-03
8.000000e-01 2.708300e-01 0.000000e+00
8.000000e-01 2.708300e-01 -8.300000e-03
8.000000e-01 2.500000e-01 -1.700000e-02
8.000000e-01 2.708300e-01 -1.700000e-02
8.000000e-01 2.916700e-01 -1.700000e-02
8.000000e-01 2.916700e-01 -8.300000e-03
8.000000e-01 2.916700e-01 0.000000e+00
8.000000e-01 2.500000e-01 -2.500000e-02
8.000000e-01 2.708300e-01 -2.500000e-02
8.000000e-01 2.500000e-01 -3.300000e-02
8.000000e-01 2.708300e-01 -3.300000e-02
8.000000e-01 2.916700e-01 -3.300000e-02
8.000000e-01 2.916700e-01 -2.500000e-02
8.000000e-01 2.500000e-01 -4.200000e-02
8.000000e-01 2.708300e-01 -4.200000e-02
8.000000e-01 2.500000e-01 -5.000000e-02
8.000000e-01 2.708300e-01 -5.000000e-02
8.000000e-01 2.916700e-01 -5.000000e-02
8.000000e-01 2.916700e-01 -4.200000e-02
8.000000e-01 3.125000e-01 0.000000e+00
8.000000e-01 3.125000e-01 -8.300000e-03
8.000000e-01 3.125000e-01 -1.700000e-02
8.000000e-01 3.333300e-01 -1.700000e-02
8.000000e-01 3.333300e-01 -8.300000e-03
8.000000e-01 3.333300e-01 0.000000e+00
8.000000e-01 3.125000e-01 -2.500000e-02
8.000000e-01 3.125000e-01 -3.300000e-02
8.000000e-01 3.333300e-01 -3.300000e-02
8.000000e-01 3.333300e-01 -2.500000e-02
[...]
POINT_DATA 4165
SCALARS u double 1
LOOKUP_TABLE default
4.709e-10
-1.048e-10
3.335e-10
-1.677e-10
-6.962e-10
-6.948e-10
-6.930e-10
-2.308e-10
2.093e-10
-1.236e-09
-1.180e-09
-1.775e-09
-1.665e-09
-1.547e-09
-1.119e-09
-2.384e-09
-2.213e-09
-2.929e-09
-2.703e-09
-2.460e-09
-2.029e-09
9.635e-11
-2.833e-10
-6.838e-10
-6.678e-10
-3.224e-10
4.475e-12
-1.053e-09
-1.423e-09
-1.303e-09
-9.862e-10
-1.839e-09
-2.208e-09
-1.965e-09
-1.656e-09
-5.387e-11
-3.371e-10
-6.450e-10
-6.021e-10
-2.762e-10
6.047e-12
-9.314e-10
-1.213e-09
-1.209e-09
-9.095e-10
-1.515e-09
-1.766e-09
-1.738e-09
-1.517e-09
7.535e-10
-3.095e-12
7.413e-10
3.469e-12
-7.921e-10
-7.674e-10
-7.474e-10
-7.209e-13
7.146e-10
-1.516e-09
-1.475e-09
-2.240e-09
-2.183e-09
-2.119e-09
-1.433e-09
-3.057e-09
-2.981e-09
-3.786e-09
-3.693e-09
-3.583e-09
-2.892e-09
6.698e-10
-1.592e-11
-7.320e-10
-7.195e-10
-4.075e-11
6.095e-10
-1.389e-09
-2.047e-09
-1.967e-09
-1.343e-09
-2.790e-09
-3.454e-09
-3.304e-09
-2.673e-09
5.373e-10
-7.017e-11
-7.068e-10
-1.291e-09
-1.877e-09
-2.538e-09
-3.130e-09
5.761e-10
-1.874e-10
6.197e-10
-1.496e-10
-9.892e-10
-9.556e-10
-9.202e-10
-1.111e-10
6.616e-10
-1.727e-09
-1.697e-09
-2.466e-09
-2.439e-09
-2.408e-09
-1.664e-09
-3.298e-09
-3.274e-09
-4.038e-09
-4.017e-09
-3.992e-09
-3.246e-09
6.983e-10
-7.556e-11
-8.853e-10
-8.521e-10
-4.498e-11
7.269e-10
-1.629e-09
-2.374e-09
-2.335e-09
-1.593e-09
-3.212e-09
-3.959e-09
-3.917e-09
-3.171e-09
7.449e-10
-2.054e-11
-8.208e-10
-1.556e-09
-2.291e-09
-3.120e-09
-3.860e-09
4.497e-10
-3.024e-10
4.539e-10
-2.988e-10
-1.092e-09
-1.089e-09
-1.080e-09
-2.880e-10
4.660e-10
-1.819e-09
-1.817e-09
-2.547e-09
-2.545e-09
-2.538e-09
-1.808e-09
-3.367e-09
-3.365e-09
-4.096e-09
-4.094e-09
-4.089e-09
-3.359e-09
4.855e-10
-2.707e-10
-1.064e-09
-1.044e-09
-2.476e-10
5.112e-10
-1.795e-09
-2.526e-09
-2.510e-09
-1.776e-09
-3.349e-09
-4.081e-09
-4.070e-09
-3.335e-09
5.418e-10
-2.198e-10
-1.019e-09
-1.754e-09
-2.490e-09
-3.318e-09
-4.055e-09
5.761e-10
-1.874e-10
5.418e-10
-2.198e-10
-9.892e-10
-1.019e-09
-1.044e-09
-2.476e-10
5.112e-10
-1.727e-09
-1.754e-09
-2.466e-09
-2.490e-09
-2.510e-09
-1.777e-09
-3.298e-09
-3.318e-09
-4.038e-09
-4.055e-09
-4.070e-09
-3.335e-09
4.855e-10
-2.707e-10
-1.064e-09
-1.080e-09
-2.880e-10
4.660e-10
-1.795e-09
-2.526e-09
-2.538e-09
-1.808e-09
-3.349e-09
-4.081e-09
-4.089e-09
-3.359e-09
4.539e-10
-2.988e-10
-1.089e-09
-1.817e-09
-2.545e-09
-3.365e-09
-4.094e-09
7.535e-10
-3.105e-12
7.449e-10
-2.055e-11
-7.921e-10
-8.208e-10
-8.521e-10
-4.499e-11
7.269e-10
-1.516e-09
-1.556e-09
-2.240e-09
-2.291e-09
-2.335e-09
-1.593e-09
-3.057e-09
-3.120e-09
-3.786e-09
-3.860e-09
-3.917e-09
-3.171e-09
6.983e-10
-7.557e-11
-8.853e-10
-9.202e-10
-1.111e-10
6.616e-10
-1.629e-09
-2.374e-09
-2.408e-09
-1.664e-09
-3.212e-09
-3.959e-09
-3.992e-09
-3.246e-09
6.197e-10
-1.496e-10
-9.556e-10
-1.697e-09
-2.439e-09
-3.274e-09
-4.017e-09
4.709e-10
-1.048e-10
5.373e-10
-7.018e-11
-6.962e-10
-7.068e-10
-7.195e-10
-4.077e-11
6.094e-10
-1.236e-09
-1.291e-09
-1.775e-09
-1.877e-09
-1.967e-09
-1.343e-09
-2.384e-09
-2.538e-09
-2.929e-09
-3.130e-09
-3.304e-09
-2.673e-09
6.698e-10
-1.593e-11
-7.320e-10
-7.474e-10
-7.323e-13
7.146e-10
-1.390e-09
-2.047e-09
-2.119e-09
-1.433e-09
-2.790e-09
-3.454e-09
-3.583e-09
-2.892e-09
7.413e-10
3.458e-12
-7.674e-10
-1.475e-09
-2.183e-09
-2.981e-09
-3.693e-09
6.095e-12
-2.762e-10
-5.386e-11
-3.371e-10
-6.021e-10
-6.450e-10
-6.679e-10
-3.224e-10
4.605e-12
-9.096e-10
-9.314e-10
-1.209e-09
-1.213e-09
-1.303e-09
-9.863e-10
-1.517e-09
-1.515e-09
-1.738e-09
-1.766e-09
-1.965e-09
-1.656e-09
9.635e-11
-2.833e-10
-6.838e-10
-6.930e-10
-2.309e-10
2.091e-10
-1.053e-09
-1.423e-09
-1.547e-09
-1.119e-09
-1.839e-09
-2.208e-09
-2.460e-09
-2.029e-09
3.335e-10
-1.677e-10
-6.948e-10
-1.180e-09
-1.665e-09
-2.213e-09
-2.704e-09
5.731e-10
4.950e-10
2.376e-10
2.234e-10
5.018e-10
6.084e-10
-5.297e-11
-2.053e-10
-3.701e-10
-1.188e-10
-3.013e-10
0.000e+00
0.000e+00
-3.656e-10
6.078e-10
4.455e-10
1.764e-10
1.258e-10
3.912e-10
5.960e-10
-1.604e-10
-4.080e-10
-3.634e-10
-1.732e-10
-3.240e-10
0.000e+00
0.000e+00
-2.608e-10
5.825e-10
3.524e-10
9.429e-11
8.571e-11
3.298e-10
5.706e-10
-1.531e-10
-2.941e-10
-2.206e-10
-1.220e-10
-2.174e-10
0.000e+00
-7.985e-11
-1.738e-10
5.612e-10
3.196e-10
8.961e-11
9.803e-11
3.158e-10
5.535e-10
-8.788e-11
-1.688e-10
-1.343e-10
-6.101e-11
-1.352e-10
0.000e+00
0.000e+00
-9.401e-11
5.459e-10
3.138e-10
1.051e-10
1.086e-10
3.110e-10
5.375e-10
-4.350e-11
-1.084e-10
-9.339e-11
-3.300e-11
-7.352e-11
0.000e+00
0.000e+00
-6.229e-11
5.280e-10
3.070e-10
1.097e-10
1.131e-10
3.023e-10
5.175e-10
-2.639e-11
-8.504e-11
-7.490e-11
-1.868e-11
-6.056e-11
0.000e+00
-1.463e-11
-6.265e-11
1.157e-09
1.204e-09
1.165e-09
1.201e-09
1.201e-09
1.186e-09
1.169e-09
1.193e-09
1.167e-09
1.133e-09
1.110e-09
9.992e-10
9.727e-10
9.483e-10
1.087e-09
8.053e-10
7.840e-10
7.654e-10
1.166e-09
1.183e-09
1.152e-09
1.136e-09
1.172e-09
1.162e-09
1.066e-09
9.278e-10
9.110e-10
1.048e-09
7.497e-10
7.365e-10
1.156e-09
1.160e-09
1.120e-09
1.100e-09
1.143e-09
1.146e-09
1.031e-09
8.959e-10
8.788e-10
1.011e-09
7.247e-10
7.119e-10
6.832e-10
7.693e-10
7.003e-10
7.887e-10
8.596e-10
8.806e-10
8.972e-10
8.050e-10
7.158e-10
9.485e-10
9.694e-10
1.031e-09
1.050e-09
1.063e-09
9.848e-10
1.101e-09
1.116e-09
1.124e-09
7.297e-10
8.187e-10
9.101e-10
9.200e-10
8.303e-10
7.424e-10
9.959e-10
1.071e-09
1.075e-09
1.004e-09
1.128e-09
1.129e-09
7.543e-10
8.404e-10
9.277e-10
9.337e-10
8.502e-10
7.660e-10
1.008e-09
1.077e-09
1.075e-09
1.010e-09
1.127e-09
1.122e-09
4.233e-10
4.311e-10
4.352e-10
4.433e-10
4.544e-10
4.673e-10
4.807e-10
4.563e-10
4.481e-10
4.927e-10
5.067e-10
5.449e-10
5.600e-10
5.745e-10
5.206e-10
6.090e-10
6.251e-10
6.401e-10
4.618e-10
4.700e-10
4.944e-10
5.085e-10
4.843e-10
4.762e-10
5.343e-10
5.881e-10
6.012e-10
5.479e-10
6.538e-10
6.666e-10
4.917e-10
4.997e-10
5.235e-10
5.403e-10
5.171e-10
5.093e-10
5.621e-10
6.143e-10
6.287e-10
5.779e-10
6.788e-10
6.913e-10
6.832e-10
6.090e-10
7.003e-10
6.251e-10
5.449e-10
5.600e-10
5.745e-10
6.401e-10
7.158e-10
4.927e-10
5.067e-10
4.544e-10
4.673e-10
4.807e-10
5.206e-10
4.311e-10
4.433e-10
4.563e-10
7.297e-10
6.538e-10
5.881e-10
6.012e-10
6.666e-10
7.424e-10
5.343e-10
4.944e-10
5.085e-10
5.479e-10
4.700e-10
4.843e-10
7.543e-10
6.788e-10
6.143e-10
6.287e-10
6.913e-10
7.660e-10
5.621e-10
5.235e-10
5.403e-10
5.779e-10
4.997e-10
5.171e-10
1.157e-09
1.101e-09
1.165e-09
1.116e-09
1.031e-09
1.050e-09
1.063e-09
1.124e-09
1.167e-09
9.485e-10
9.694e-10
8.596e-10
8.806e-10
8.972e-10
9.848e-10
7.693e-10
7.887e-10
8.050e-10
1.166e-09
1.128e-09
1.071e-09
1.075e-09
1.129e-09
1.162e-09
9.959e-10
9.101e-10
9.200e-10
1.004e-09
8.187e-10
8.303e-10
1.156e-09
1.127e-09
1.077e-09
1.075e-09
1.122e-09
1.146e-09
1.008e-09
9.277e-10
9.337e-10
1.010e-09
8.404e-10
8.502e-10
5.706e-10
8.053e-10
5.612e-10
7.840e-10
9.992e-10
9.727e-10
9.483e-10
7.653e-10
5.535e-10
1.133e-09
1.110e-09
1.201e-09
1.186e-09
1.169e-09
1.087e-09
1.204e-09
1.201e-09
1.193e-09
5.459e-10
7.497e-10
9.277e-10
9.109e-10
7.365e-10
5.375e-10
1.066e-09
1.152e-09
1.136e-09
1.048e-09
1.183e-09
1.172e-09
5.279e-10
7.246e-10
8.959e-10
8.788e-10
7.119e-10
5.175e-10
1.031e-09
1.120e-09
1.100e-09
1.011e-09
1.160e-09
1.143e-09
-7.989e-11
-1.736e-10
0.000e+00
-1.350e-10
-2.205e-10
-1.688e-10
-1.343e-10
-9.386e-11
0.000e+00
-1.221e-10
-8.795e-11
8.535e-11
8.928e-11
9.772e-11
-6.107e-11
3.298e-10
3.196e-10
3.158e-10
0.000e+00
-7.341e-11
-1.084e-10
-9.338e-11
-6.219e-11
0.000e+00
-4.357e-11
1.048e-10
1.083e-10
-3.307e-11
3.138e-10
3.109e-10
0.000e+00
-6.047e-11
-8.502e-11
-7.489e-11
-6.258e-11
-1.464e-11
-2.647e-11
1.094e-10
1.128e-10
-1.875e-11
3.070e-10
3.023e-10
8.914e-10
9.199e-10
9.155e-10
1.062e-09
1.049e-09
9.960e-10
8.824e-10
8.262e-10
9.669e-10
1.035e-09
7.314e-10
8.265e-10
1.067e-09
1.130e-09
1.150e-09
1.193e-09
1.177e-09
1.114e-09
1.118e-09
1.027e-09
1.038e-09
1.150e-09
8.516e-10
8.458e-10
1.142e-09
1.199e-09
1.206e-09
1.149e-09
1.024e-09
8.273e-10
5.920e-10
6.435e-10
6.963e-10
7.327e-10
6.687e-10
6.087e-10
7.470e-10
7.948e-10
8.622e-10
7.978e-10
8.413e-10
9.282e-10
6.267e-10
6.955e-10
7.691e-10
8.034e-10
7.221e-10
6.457e-10
8.452e-10
9.211e-10
9.685e-10
8.867e-10
9.956e-10
1.045e-09
6.648e-10
7.470e-10
8.339e-10
9.211e-10
1.005e-09
1.079e-09
4.266e-10
4.312e-10
4.449e-10
4.327e-10
4.167e-10
4.114e-10
4.676e-10
4.990e-10
4.967e-10
4.592e-10
5.395e-10
5.469e-10
4.056e-10
4.117e-10
4.299e-10
4.341e-10
4.138e-10
4.070e-10
4.604e-10
5.036e-10
5.155e-10
4.680e-10
5.600e-10
5.756e-10
4.135e-10
4.208e-10
4.429e-10
4.794e-10
5.298e-10
5.923e-10
5.920e-10
5.395e-10
4.990e-10
4.967e-10
5.469e-10
6.087e-10
4.676e-10
4.449e-10
4.327e-10
4.592e-10
4.312e-10
4.167e-10
6.267e-10
5.600e-10
5.036e-10
5.155e-10
5.756e-10
6.457e-10
4.604e-10
4.299e-10
4.341e-10
4.680e-10
4.117e-10
4.138e-10
6.648e-10
5.923e-10
5.298e-10
4.794e-10
4.429e-10
4.208e-10
8.914e-10
8.413e-10
7.948e-10
8.622e-10
9.282e-10
9.960e-10
7.470e-10
6.963e-10
7.327e-10
7.978e-10
6.435e-10
6.687e-10
1.067e-09
9.956e-10
9.211e-10
9.685e-10
1.045e-09
1.114e-09
8.452e-10
7.691e-10
8.034e-10
8.867e-10
6.955e-10
7.221e-10
1.142e-09
1.079e-09
1.005e-09
9.211e-10
8.339e-10
7.470e-10
5.731e-10
7.314e-10
8.262e-10
9.669e-10
8.264e-10
6.084e-10
8.823e-10
9.154e-10
1.062e-09
1.035e-09
9.199e-10
1.049e-09
6.078e-10
8.516e-10
1.027e-09
1.038e-09
8.458e-10
5.960e-10
1.118e-09
1.150e-09
1.193e-09
1.150e-09
1.130e-09
1.177e-09
5.824e-10
8.273e-10
1.024e-09
1.149e-09
1.206e-09
1.199e-09
0.000e+00
-3.011e-10
-2.051e-10
-3.698e-10
-3.652e-10
0.000e+00
-5.296e-11
2.372e-10
2.229e-10
-1.188e-10
4.950e-10
5.018e-10
0.000e+00
-3.236e-10
-4.078e-10
-3.633e-10
-2.604e-10
0.000e+00
-1.605e-10
1.759e-10
1.254e-10
-1.732e-10
4.455e-10
3.912e-10
0.000e+00
-2.171e-10
-2.940e-10
-1.532e-10
9.389e-11
3.524e-10
1.388e-10
-1.586e-11
1.050e-10
-3.031e-11
-1.750e-10
-1.725e-10
-1.711e-10
-4.571e-11
7.400e-11
-3.203e-10
-3.031e-10
-4.652e-10
-4.336e-10
-4.020e-10
-2.866e-10
-6.283e-10
-5.806e-10
-7.737e-10
-7.115e-10
-6.477e-10
-5.320e-10
4.415e-11
-6.000e-11
-1.695e-10
-1.676e-10
-7.274e-11
1.740e-11
-2.702e-10
-3.708e-10
-3.417e-10
-2.548e-10
-4.837e-10
-5.838e-10
-5.232e-10
-4.384e-10
-3.239e-12
-8.034e-11
-1.643e-10
-1.540e-10
-6.629e-11
9.063e-12
-2.427e-10
-3.201e-10
-3.191e-10
-2.373e-10
-4.037e-10
-4.738e-10
-4.662e-10
-4.040e-10
2.218e-10
5.343e-12
2.124e-10
5.183e-12
-2.202e-10
-2.117e-10
-2.037e-10
3.378e-12
2.014e-10
-4.272e-10
-4.109e-10
-6.342e-10
-6.102e-10
-5.843e-10
-3.940e-10
-8.676e-10
-8.349e-10
-1.076e-09
-1.035e-09
-9.905e-10
-7.990e-10
1.878e-10
2.195e-13
-1.960e-10
-1.886e-10
-4.243e-12
1.720e-10
-3.763e-10
-5.568e-10
-5.275e-10
-3.580e-10
-7.602e-10
-9.416e-10
-8.892e-10
-7.187e-10
1.546e-10
-9.292e-12
-1.812e-10
-3.390e-10
-4.968e-10
-6.745e-10
-8.331e-10
2.129e-10
-2.609e-11
2.177e-10
-1.937e-11
-2.765e-10
-2.677e-10
-2.583e-10
-1.266e-11
2.219e-10
-5.069e-10
-4.961e-10
-7.375e-10
-7.247e-10
-7.101e-10
-4.841e-10
-9.973e-10
-9.822e-10
-1.229e-09
-1.212e-09
-1.191e-09
-9.646e-10
2.247e-10
-6.591e-12
-2.487e-10
-2.391e-10
-1.533e-12
2.255e-10
-4.712e-10
-6.938e-10
-6.759e-10
-4.574e-10
-9.447e-10
-1.168e-09
-1.142e-09
-9.222e-10
2.242e-10
2.505e-12
-2.295e-10
-4.428e-10
-6.561e-10
-8.966e-10
-1.111e-09
1.960e-10
-4.703e-11
1.966e-10
-4.638e-11
-3.020e-10
-3.012e-10
-2.990e-10
-4.446e-11
1.983e-10
-5.366e-10
-5.358e-10
-7.714e-10
-7.705e-10
-7.678e-10
-5.333e-10
-1.036e-09
-1.035e-09
-1.271e-09
-1.270e-09
-1.267e-09
-1.032e-09
2.009e-10
-4.136e-11
-2.954e-10
-2.905e-10
-3.722e-11
2.043e-10
-5.292e-10
-7.632e-10
-7.567e-10
-5.235e-10
-1.027e-09
-1.262e-09
-1.254e-09
-1.020e-09
2.083e-10
-3.213e-11
-2.842e-10
-5.160e-10
-7.482e-10
-1.010e-09
-1.243e-09
2.129e-10
-2.610e-11
2.082e-10
-3.214e-11
-2.765e-10
-2.842e-10
-2.905e-10
-3.722e-11
2.043e-10
-5.069e-10
-5.161e-10
-7.375e-10
-7.482e-10
-7.567e-10
-5.235e-10
-9.973e-10
-1.010e-09
-1.229e-09
-1.243e-09
-1.254e-09
-1.020e-09
2.009e-10
-4.137e-11
-2.954e-10
-2.990e-10
-4.446e-11
1.983e-10
-5.292e-10
-7.633e-10
-7.678e-10
-5.333e-10
-1.027e-09
-1.262e-09
-1.267e-09
-1.032e-09
1.966e-10
-4.638e-11
-3.012e-10
-5.358e-10
-7.705e-10
-1.035e-09
-1.270e-09
2.218e-10
5.333e-12
2.242e-10
2.496e-12
-2.202e-10
-2.296e-10
-2.391e-10
-1.541e-12
2.255e-10
-4.272e-10
-4.428e-10
-6.342e-10
-6.561e-10
-6.759e-10
-4.575e-10
-8.676e-10
-8.966e-10
-1.076e-09
-1.111e-09
-1.142e-09
-9.222e-10
2.247e-10
-6.599e-12
-2.487e-10
-2.583e-10
-1.267e-11
2.219e-10
-4.712e-10
-6.938e-10
-7.101e-10
-4.841e-10
-9.447e-10
-1.168e-09
-1.191e-09
-9.646e-10
2.176e-10
-1.938e-11
-2.677e-10
-4.961e-10
-7.247e-10
-9.822e-10
-1.212e-09
1.388e-10
-1.587e-11
1.546e-10
-9.302e-12
-1.751e-10
-1.812e-10
-1.886e-10
-4.253e-12
1.720e-10
-3.203e-10
-3.390e-10
-4.652e-10
-4.968e-10
-5.275e-10
-3.580e-10
-6.283e-10
-6.746e-10
-7.737e-10
-8.332e-10
-8.892e-10
-7.187e-10
1.878e-10
2.092e-13
-1.960e-10
-2.037e-10
3.367e-12
2.014e-10
-3.763e-10
-5.568e-10
-5.844e-10
-3.940e-10
-7.602e-10
-9.417e-10
-9.905e-10
-7.990e-10
2.124e-10
5.172e-12
-2.117e-10
-4.109e-10
-6.102e-10
-8.349e-10
-1.035e-09
9.076e-12
-6.629e-11
-3.245e-12
-8.034e-11
-1.540e-10
-1.643e-10
-1.676e-10
-7.273e-11
1.744e-11
-2.373e-10
-2.427e-10
-3.191e-10
-3.201e-10
-3.417e-10
-2.549e-10
-4.040e-10
-4.037e-10
-4.663e-10
-4.737e-10
-5.233e-10
-4.385e-10
4.415e-11
-6.001e-11
-1.695e-10
-1.712e-10
-4.573e-11
7.396e-11
-2.702e-10
-3.708e-10
-4.020e-10
-2.866e-10
-4.838e-10
-5.838e-10
-6.476e-10
-5.320e-10
1.050e-10
-3.032e-11
-1.725e-10
-3.031e-10
-4.336e-10
-5.806e-10
-7.115e-10
2.457e-10
2.816e-10
1.367e-10
1.548e-10
3.085e-10
2.884e-10
-6.389e-11
-1.536e-10
-3.066e-10
-9.248e-11
-2.793e-10
0.000e+00
0.000e+00
-3.362e-10
2.954e-10
2.740e-10
1.390e-10
1.193e-10
2.402e-10
2.900e-10
-1.034e-10
-3.212e-10
-2.342e-10
-7.916e-11
-2.739e-10
0.000e+00
0.000e+00
-1.798e-10
2.811e-10
2.183e-10
1.192e-10
1.388e-10
2.064e-10
2.721e-10
-1.034e-11
-1.118e-10
3.102e-11
7.779e-11
-8.588e-11
0.000e+00
-3.342e-12
5.337e-12
2.644e-10
1.965e-10
1.604e-10
1.665e-10
1.802e-10
2.595e-10
1.664e-10
1.724e-10
2.906e-10
2.376e-10
9.401e-11
0.000e+00
0.000e+00
1.837e-10
2.605e-10
1.542e-10
1.547e-10
1.426e-10
1.279e-10
2.776e-10
2.684e-10
3.743e-10
3.657e-10
2.642e-10
2.689e-10
0.000e+00
0.000e+00
3.186e-10
3.383e-10
1.591e-10
1.563e-10
2.285e-10
2.173e-10
2.501e-10
0.000e+00
4.705e-10
4.619e-10
4.629e-10
4.321e-10
4.438e-10
3.948e-10
3.629e-10
4.161e-10
4.651e-10
4.145e-10
3.527e-10
3.751e-10
3.128e-10
2.644e-10
3.083e-10
3.272e-10
2.853e-10
2.518e-10
4.855e-10
4.266e-10
3.643e-10
4.149e-10
4.760e-10
5.335e-10
2.994e-10
2.457e-10
2.810e-10
3.475e-10
2.364e-10
2.570e-10
6.204e-10
5.783e-10
5.301e-10
4.715e-10
4.000e-10
3.481e-10
4.119e-10
4.325e-10
4.469e-10
4.692e-10
4.519e-10
4.888e-10
5.256e-10
5.047e-10
4.798e-10
4.665e-10
4.997e-10
4.750e-10
4.999e-10
5.293e-10
5.348e-10
4.761e-10
4.875e-10
5.059e-10
5.095e-10
5.383e-10
5.623e-10
5.978e-10
5.688e-10
5.352e-10
5.730e-10
5.668e-10
6.138e-10
6.139e-10
5.376e-10
5.881e-10
5.570e-10
5.953e-10
6.306e-10
6.560e-10
6.676e-10
6.590e-10
3.551e-10
3.570e-10
3.936e-10
3.957e-10
3.626e-10
4.020e-10
4.365e-10
4.294e-10
4.269e-10
3.715e-10
4.114e-10
3.831e-10
4.226e-10
4.585e-10
4.469e-10
3.965e-10
4.339e-10
4.686e-10
4.518e-10
4.548e-10
4.631e-10
4.785e-10
4.688e-10
4.654e-10
4.753e-10
4.886e-10
5.101e-10
4.932e-10
4.991e-10
5.237e-10
4.647e-10
4.686e-10
4.797e-10
4.968e-10
5.181e-10
5.393e-10
4.119e-10
3.965e-10
4.469e-10
4.339e-10
3.831e-10
4.226e-10
4.584e-10
4.686e-10
4.798e-10
3.715e-10
4.114e-10
3.626e-10
4.020e-10
4.365e-10
4.469e-10
3.570e-10
3.957e-10
4.294e-10
5.095e-10
4.991e-10
4.886e-10
5.101e-10
5.237e-10
5.352e-10
4.753e-10
4.631e-10
4.785e-10
4.932e-10
4.548e-10
4.688e-10
5.570e-10
5.393e-10
5.181e-10
4.968e-10
4.797e-10
4.686e-10
4.705e-10
4.761e-10
4.629e-10
4.875e-10
4.750e-10
4.999e-10
5.293e-10
5.059e-10
4.651e-10
4.665e-10
4.997e-10
4.519e-10
4.888e-10
5.256e-10
5.348e-10
4.325e-10
4.692e-10
5.047e-10
4.855e-10
5.376e-10
5.668e-10
6.138e-10
5.881e-10
5.334e-10
5.730e-10
5.623e-10
5.978e-10
6.139e-10
5.383e-10
5.688e-10
6.204e-10
6.590e-10
6.676e-10
6.560e-10
6.306e-10
5.953e-10
2.721e-10
3.272e-10
2.644e-10
2.853e-10
3.751e-10
3.128e-10
2.644e-10
2.518e-10
2.595e-10
4.144e-10
3.527e-10
4.438e-10
3.948e-10
3.629e-10
3.083e-10
4.619e-10
4.320e-10
4.161e-10
2.605e-10
2.364e-10
2.457e-10
2.810e-10
2.570e-10
2.776e-10
2.994e-10
3.643e-10
4.149e-10
3.474e-10
4.266e-10
4.759e-10
3.383e-10
3.481e-10
4.000e-10
4.715e-10
5.301e-10
5.783e-10
-3.343e-12
5.330e-12
0.000e+00
9.386e-11
3.109e-11
1.724e-10
2.906e-10
1.834e-10
0.000e+00
7.779e-11
1.664e-10
1.387e-10
1.604e-10
1.665e-10
2.376e-10
2.064e-10
1.965e-10
1.803e-10
0.000e+00
2.686e-10
3.743e-10
3.656e-10
3.183e-10
0.000e+00
2.684e-10
1.548e-10
1.426e-10
2.641e-10
1.542e-10
1.279e-10
0.000e+00
2.500e-10
2.172e-10
2.284e-10
1.563e-10
1.592e-10
3.423e-10
3.671e-10
3.766e-10
4.871e-10
4.635e-10
4.217e-10
3.769e-10
3.718e-10
4.863e-10
4.957e-10
3.371e-10
4.193e-10
4.636e-10
5.067e-10
5.324e-10
5.290e-10
5.121e-10
4.796e-10
5.388e-10
5.156e-10
4.911e-10
5.253e-10
4.305e-10
4.082e-10
4.789e-10
4.929e-10
4.939e-10
4.774e-10
4.387e-10
3.704e-10
2.420e-10
2.498e-10
2.587e-10
2.972e-10
2.836e-10
2.725e-10
2.697e-10
2.840e-10
3.390e-10
3.154e-10
3.060e-10
3.737e-10
3.052e-10
3.198e-10
3.368e-10
3.761e-10
3.573e-10
3.400e-10
3.586e-10
3.855e-10
4.219e-10
3.977e-10
4.204e-10
4.490e-10
3.759e-10
3.951e-10
4.145e-10
4.332e-10
4.504e-10
4.655e-10
2.001e-10
2.007e-10
2.026e-10
2.186e-10
2.160e-10
2.152e-10
2.062e-10
2.122e-10
2.327e-10
2.238e-10
2.231e-10
2.493e-10
2.414e-10
2.425e-10
2.461e-10
2.815e-10
2.771e-10
2.757e-10
2.528e-10
2.642e-10
3.018e-10
2.894e-10
2.826e-10
3.193e-10
3.146e-10
3.163e-10
3.214e-10
3.300e-10
3.422e-10
3.578e-10
2.420e-10
2.231e-10
2.122e-10
2.327e-10
2.493e-10
2.725e-10
2.062e-10
2.026e-10
2.186e-10
2.238e-10
2.007e-10
2.160e-10
3.052e-10
2.826e-10
2.642e-10
3.018e-10
3.193e-10
3.400e-10
2.528e-10
2.461e-10
2.815e-10
2.894e-10
2.425e-10
2.771e-10
3.759e-10
3.578e-10
3.422e-10
3.300e-10
3.214e-10
3.163e-10
3.423e-10
3.060e-10
2.840e-10
3.390e-10
3.737e-10
4.217e-10
2.697e-10
2.587e-10
2.972e-10
3.154e-10
2.498e-10
2.836e-10
4.636e-10
4.204e-10
3.855e-10
4.219e-10
4.490e-10
4.796e-10
3.585e-10
3.368e-10
3.761e-10
3.977e-10
3.197e-10
3.573e-10
4.789e-10
4.655e-10
4.504e-10
4.332e-10
4.145e-10
3.951e-10
2.457e-10
3.371e-10
3.718e-10
4.863e-10
4.193e-10
2.884e-10
3.769e-10
3.766e-10
4.871e-10
4.957e-10
3.671e-10
4.635e-10
2.954e-10
4.305e-10
5.156e-10
4.911e-10
4.082e-10
2.900e-10
5.388e-10
5.324e-10
5.290e-10
5.253e-10
5.067e-10
5.121e-10
2.811e-10
3.704e-10
4.387e-10
4.774e-10
4.939e-10
4.929e-10
0.000e+00
-2.791e-10
-1.534e-10
-3.063e-10
-3.359e-10
0.000e+00
-6.386e-11
1.365e-10
1.545e-10
-9.245e-11
2.816e-10
3.085e-10
0.000e+00
-2.736e-10
-3.210e-10
-2.341e-10
-1.796e-10
0.000e+00
-1.034e-10
1.388e-10
1.191e-10
-7.919e-11
2.740e-10
2.402e-10
0.000e+00
-8.575e-11
-1.117e-10
-1.035e-11
1.191e-10
2.183e-10
-1.389e-10
1.600e-11
-1.050e-10
3.045e-11
1.754e-10
1.728e-10
1.715e-10
4.585e-11
-7.403e-11
3.209e-10
3.036e-10
4.659e-10
4.343e-10
4.027e-10
2.870e-10
6.292e-10
5.814e-10
7.748e-10
7.126e-10
6.486e-10
5.328e-10
-4.415e-11
6.014e-11
1.698e-10
1.679e-10
7.288e-11
-1.739e-11
2.706e-10
3.714e-10
3.422e-10
2.552e-10
4.844e-10
5.846e-10
5.239e-10
4.391e-10
3.265e-12
8.048e-11
1.646e-10
1.543e-10
6.641e-11
-9.059e-12
2.431e-10
3.206e-10
3.196e-10
2.377e-10
4.043e-10
4.745e-10
4.669e-10
4.046e-10
-2.219e-10
-5.177e-12
-2.125e-10
-5.018e-12
2.207e-10
2.121e-10
2.041e-10
-3.216e-12
-2.015e-10
4.279e-10
4.116e-10
6.351e-10
6.111e-10
5.852e-10
3.946e-10
8.688e-10
8.361e-10
1.077e-09
1.037e-09
9.919e-10
8.001e-10
-1.879e-10
-6.161e-14
1.964e-10
1.890e-10
4.396e-12
-1.721e-10
3.770e-10
5.576e-10
5.283e-10
3.586e-10
7.613e-10
9.430e-10
8.905e-10
7.197e-10
-1.546e-10
9.438e-12
1.815e-10
3.395e-10
4.975e-10
6.755e-10
8.343e-10
-2.130e-10
2.626e-11
-2.178e-10
1.955e-11
2.770e-10
2.682e-10
2.587e-10
1.283e-11
-2.220e-10
5.076e-10
4.968e-10
7.385e-10
7.257e-10
7.111e-10
4.848e-10
9.986e-10
9.835e-10
1.230e-09
1.213e-09