# vtk DataFile Version 3.0
vtk output
ASCII
DATASET UNSTRUCTURED_GRID
POINTS 4165 double
8.000000e-01 8.750000e-01 0.000000e+00
8.000000e-01 8.750000e-01 -8.300000e-03
8.000000e-01 8.958300e-01 0.000000e+00
8.000000e-01 8.958300e-01 -8.300000e-03
8.000000e-01 8.750000e-01 -1.700000e-02
8.000000e-01 8.958300e-01 -1.700000e-02
8.000000e-01 9.166700e-01 -1.700000e-02
8.000000e-01 9.166700e-01 -8.300000e-03
8.000000e-01 9.166700e-01 0.000000e+00
8.000000e-01 8.750000e-01 -2.500000e-02
8.000000e-01 8.958300e-01 -2.500000e-02
8.000000e-01 8.750000e-01 -3.300000e-02
8.000000e-01 8.958300e-01 -3.300000e-02
8.000000e-01 9.166700e-01 -3.300000e-02
8.000000e-01 9.166700e-01 -2.500000e-02
8.000000e-01 8.750000e-01 -4.200000e-02
8.000000e-01 8.958300e-01 -4.200000e-02
8.000000e-01 8.750000e-01 -5.000000e-02
8.000000e-01 8.958300e-01 -5.000000e-02
8.000000e-01 9.166700e-01 -5.000000e-02
8.000000e-01 9.166700e-01 -4.200000e-02
8.000000e-01 9.375000e-01 0.000000e+00
8.000000e-01 9.375000e-01 -8.300000e-03
8.000000e-01 9.375000e-01 -1.700000e-02
8.000000e-01 9.583300e-01 -1.700000e-02
8.000000e-01 9.583300e-01 -8.300000e-03
8.000000e-01 9.583300e-01 0.000000e+00
8.000000e-01 9.375000e-01 -2.500000e-02
8.000000e-01 9.375000e-01 -3.300000e-02
8.000000e-01 9.583300e-01 -3.300000e-02
8.000000e-01 9.583300e-01 -2.500000e-02
8.000000e-01 9.375000e-01 -4.200000e-02
8.000000e-01 9.375000e-01 -5.000000e-02
8.000000e-01 9.583300e-01 -5.000000e-02
8.000000e-01 9.583300e-01 -4.200000e-02
8.000000e-01 9.791700e-01 0.000000e+00
8.000000e-01 9.791700e-01 -8.300000e-03
8.000000e-01 9.791700e-01 -1.700000e-02
8.000000e-01 1.000000e+00 -1.700000e-02
8.000000e-01 1.000000e+00 -8.300000e-03
8.000000e-01 1.000000e+00 0.000000e+00
8.000000e-01 9.791700e-01 -2.500000e-02
8.000000e-01 9.791700e-01 -3.300000e-02
8.000000e-01 1.000000e+00 -3.300000e-02
8.000000e-01 1.000000e+00 -2.500000e-02
8.000000e-01 9.791700e-01 -4.200000e-02
8.000000e-01 9.791700e-01 -5.000000e-02
8.000000e-01 1.000000e+00 -5.000000e-02
8.000000e-01 1.000000e+00 -4.200000e-02
8.000000e-01 7.500000e-01 0.000000e+00
8.000000e-01 7.500000e-01 -8.300000e-03
8.000000e-01 7.708300e-01 0.000000e+00
8.000000e-01 7.708300e-01 -8.300000e-03
8.000000e-01 7.500000e-01 -1.700000e-02
8.000000e-01 7.708300e-01 -1.700000e-02
8.000000e-01 7.916700e-01 -1.700000e-02
8.000000e-01 7.916700e-01 -8.300000e-03
8.000000e-01 7.916700e-01 0.000000e+00
8.000000e-01 7.500000e-01 -2.500000e-02
8.000000e-01 7.708300e-01 -2.500000e-02
8.000000e-01 7.500000e-01 -3.300000e-02
8.000000e-01 7.708300e-01 -3.300000e-02
8.000000e-01 7.916700e-01 -3.300000e-02
8.000000e-01 7.916700e-01 -2.500000e-02
8.000000e-01 7.500000e-01 -4.200000e-02
8.000000e-01 7.708300e-01 -4.200000e-02
8.000000e-01 7.500000e-01 -5.000000e-02
8.000000e-01 7.708300e-01 -5.000000e-02
8.000000e-01 7.916700e-01 -5.000000e-02
8.000000e-01 7.916700e-01 -4.200000e-02
8.000000e-01 8.125000e-01 0.000000e+00
8.000000e-01 8.125000e-01 -8.300000e-03
8.000000e-01 8.125000e-01 -1.700000e-02
8.000000e-01 8.333300e-01 -1.700000e-02
8.000000e-01 8.333300e-01 -8.300000e-03
8.000000e-01 8.333300e-01 0.000000e+00
8.000000e-01 8.125000e-01 -2.500000e-02
8.000000e-01 8.125000e-01 -3.300000e-02
8.000000e-01 8.333300e-01 -3.300000e-02
8.000000e-01 8.333300e-01 -2.500000e-02
8.000000e-01 8.125000e-01 -4.200000e-02
8.000000e-01 8.125000e-01 -5.000000e-02
8.000000e-01 8.333300e-01 -5.000000e-02
8.000000e-01 8.333300e-01 -4.200000e-02
8.000000e-01 8.541700e-01 0.000000e+00
8.000000e-01 8.541700e-01 -8.300000e-03
8.000000e-01 8.541700e-01 -1.700000e-02
8.000000e-01 8.541700e-01 -2.500000e-02
8.000000e-01 8.541700e-01 -3.300000e-02
8.000000e-01 8.541700e-01 -4.200000e-02
8.000000e-01 8.541700e-01 -5.000000e-02
8.000000e-01 6.250000e-01 0.000000e+00
8.000000e-01 6.250000e-01 -8.300000e-03
8.000000e-01 6.458300e-01 0.000000e+00
8.000000e-01 6.458300e-01 -8.300000e-03
8.000000e-01 6.250000e-01 -1.700000e-02
8.000000e-01 6.458300e-01 -1.700000e-02
8.000000e-01 6.666700e-01 -1.700000e-02
8.000000e-01 6.666700e-01 -8.300000e-03
8.000000e-01 6.666700e-01 0.000000e+00
8.000000e-01 6.250000e-01 -2.500000e-02
8.000000e-01 6.458300e-01 -2.500000e-02
8.000000e-01 6.250000e-01 -3.300000e-02
8.000000e-01 6.458300e-01 -3.300000e-02
8.000000e-01 6.666700e-01 -3.300000e-02
8.000000e-01 6.666700e-01 -2.500000e-02
8.000000e-01 6.250000e-01 -4.200000e-02
8.000000e-01 6.458300e-01 -4.200000e-02
8.000000e-01 6.250000e-01 -5.000000e-02
8.000000e-01 6.458300e-01 -5.000000e-02
8.000000e-01 6.666700e-01 -5.000000e-02
8.000000e-01 6.666700e-01 -4.200000e-02
8.000000e-01 6.875000e-01 0.000000e+00
8.000000e-01 6.875000e-01 -8.300000e-03
8.000000e-01 6.875000e-01 -1.700000e-02
8.000000e-01 7.083300e-01 -1.700000e-02
8.000000e-01 7.083300e-01 -8.300000e-03
8.000000e-01 7.083300e-01 0.000000e+00
8.000000e-01 6.875000e-01 -2.500000e-02
8.000000e-01 6.875000e-01 -3.300000e-02
8.000000e-01 7.083300e-01 -3.300000e-02
8.000000e-01 7.083300e-01 -2.500000e-02
8.000000e-01 6.875000e-01 -4.200000e-02
8.000000e-01 6.875000e-01 -5.000000e-02
8.000000e-01 7.083300e-01 -5.000000e-02
8.000000e-01 7.083300e-01 -4.200000e-02
8.000000e-01 7.291700e-01 0.000000e+00
8.000000e-01 7.291700e-01 -8.300000e-03
8.000000e-01 7.291700e-01 -1.700000e-02
8.000000e-01 7.291700e-01 -2.500000e-02
8.000000e-01 7.291700e-01 -3.300000e-02
8.000000e-01 7.291700e-01 -4.200000e-02
8.000000e-01 7.291700e-01 -5.000000e-02
8.000000e-01 5.000000e-01 0.000000e+00
8.000000e-01 5.000000e-01 -8.300000e-03
8.000000e-01 5.208300e-01 0.000000e+00
8.000000e-01 5.208300e-01 -8.300000e-03
8.000000e-01 5.000000e-01 -1.700000e-02
8.000000e-01 5.208300e-01 -1.700000e-02
8.000000e-01 5.416700e-01 -1.700000e-02
8.000000e-01 5.416700e-01 -8.300000e-03
8.000000e-01 5.416700e-01 0.000000e+00
8.000000e-01 5.000000e-01 -2.500000e-02
8.000000e-01 5.208300e-01 -2.500000e-02
8.000000e-01 5.000000e-01 -3.300000e-02
8.000000e-01 5.208300e-01 -3.300000e-02
8.000000e-01 5.416700e-01 -3.300000e-02
8.000000e-01 5.416700e-01 -2.500000e-02
8.000000e-01 5.000000e-01 -4.200000e-02
8.000000e-01 5.208300e-01 -4.200000e-02
8.000000e-01 5.000000e-01 -5.000000e-02
8.000000e-01 5.208300e-01 -5.000000e-02
8.000000e-01 5.416700e-01 -5.000000e-02
8.000000e-01 5.416700e-01 -4.200000e-02
8.000000e-01 5.625000e-01 0.000000e+00
8.000000e-01 5.625000e-01 -8.300000e-03
8.000000e-01 5.625000e-01 -1.700000e-02
8.000000e-01 5.833300e-01 -1.700000e-02
8.000000e-01 5.833300e-01 -8.300000e-03
8.000000e-01 5.833300e-01 0.000000e+00
8.000000e-01 5.625000e-01 -2.500000e-02
8.000000e-01 5.625000e-01 -3.300000e-02
8.000000e-01 5.833300e-01 -3.300000e-02
8.000000e-01 5.833300e-01 -2.500000e-02
8.000000e-01 5.625000e-01 -4.200000e-02
8.000000e-01 5.625000e-01 -5.000000e-02
8.000000e-01 5.833300e-01 -5.000000e-02
8.000000e-01 5.833300e-01 -4.200000e-02
8.000000e-01 6.041700e-01 0.000000e+00
8.000000e-01 6.041700e-01 -8.300000e-03
8.000000e-01 6.041700e-01 -1.700000e-02
8.000000e-01 6.041700e-01 -2.500000e-02
8.000000e-01 6.041700e-01 -3.300000e-02
8.000000e-01 6.041700e-01 -4.200000e-02
8.000000e-01 6.041700e-01 -5.000000e-02
8.000000e-01 3.750000e-01 0.000000e+00
8.000000e-01 3.750000e-01 -8.300000e-03
8.000000e-01 3.958300e-01 0.000000e+00
8.000000e-01 3.958300e-01 -8.300000e-03
8.000000e-01 3.750000e-01 -1.700000e-02
8.000000e-01 3.958300e-01 -1.700000e-02
8.000000e-01 4.166700e-01 -1.700000e-02
8.000000e-01 4.166700e-01 -8.300000e-03
8.000000e-01 4.166700e-01 0.000000e+00
8.000000e-01 3.750000e-01 -2.500000e-02
8.000000e-01 3.958300e-01 -2.500000e-02
8.000000e-01 3.750000e-01 -3.300000e-02
8.000000e-01 3.958300e-01 -3.300000e-02
8.000000e-01 4.166700e-01 -3.300000e-02
8.000000e-01 4.166700e-01 -2.500000e-02
8.000000e-01 3.750000e-01 -4.200000e-02
8.000000e-01 3.958300e-01 -4.200000e-02
8.000000e-01 3.750000e-01 -5.000000e-02
8.000000e-01 3.958300e-01 -5.000000e-02
8.000000e-01 4.166700e-01 -5.000000e-02
8.000000e-01 4.166700e-01 -4.200000e-02
8.000000e-01 4.375000e-01 0.000000e+00
8.000000e-01 4.375000e-01 -8.300000e-03
8.000000e-01 4.375000e-01 -1.700000e-02
8.000000e-01 4.583300e-01 -1.700000e-02
8.000000e-01 4.583300e-01 -8.300000e-03
8.000000e-01 4.583300e-01 0.000000e+00
8.000000e-01 4.375000e-01 -2.500000e-02
8.000000e-01 4.375000e-01 -3.300000e-02
8.000000e-01 4.583300e-01 -3.300000e-02
8.000000e-01 4.583300e-01 -2.500000e-02
8.000000e-01 4.375000e-01 -4.200000e-02
8.000000e-01 4.375000e-01 -5.000000e-02
8.000000e-01 4.583300e-01 -5.000000e-02
8.000000e-01 4.583300e-01 -4.200000e-02
8.000000e-01 4.791700e-01 0.000000e+00
8.000000e-01 4.791700e-01 -8.300000e-03
8.000000e-01 4.791700e-01 -1.700000e-02
8.000000e-01 4.791700e-01 -2.500000e-02
8.000000e-01 4.791700e-01 -3.300000e-02
8.000000e-01 4.791700e-01 -4.200000e-02
8.000000e-01 4.791700e-01 -5.000000e-02
8.000000e-01 2.500000e-01 0.000000e+00
8.000000e-01 2.500000e-01 -8.300000e-03
8.000000e-01 2.708300e-01 0.000000e+00
8.000000e-01 2.708300e-01 -8.300000e-03
8.000000e-01 2.500000e-01 -1.700000e-02
8.000000e-01 2.708300e-01 -1.700000e-02
8.000000e-01 2.916700e-01 -1.700000e-02
8.000000e-01 2.916700e-01 -8.300000e-03
8.000000e-01 2.916700e-01 0.000000e+00
8.000000e-01 2.500000e-01 -2.500000e-02
8.000000e-01 2.708300e-01 -2.500000e-02
8.000000e-01 2.500000e-01 -3.300000e-02
8.000000e-01 2.708300e-01 -3.300000e-02
8.000000e-01 2.916700e-01 -3.300000e-02
8.000000e-01 2.916700e-01 -2.500000e-02
8.000000e-01 2.500000e-01 -4.200000e-02
8.000000e-01 2.708300e-01 -4.200000e-02
8.000000e-01 2.500000e-01 -5.000000e-02
8.000000e-01 2.708300e-01 -5.000000e-02
8.000000e-01 2.916700e-01 -5.000000e-02
8.000000e-01 2.916700e-01 -4.200000e-02
8.000000e-01 3.125000e-01 0.000000e+00
8.000000e-01 3.125000e-01 -8.300000e-03
8.000000e-01 3.125000e-01 -1.700000e-02
8.000000e-01 3.333300e-01 -1.700000e-02
8.000000e-01 3.333300e-01 -8.300000e-03
8.000000e-01 3.333300e-01 0.000000e+00
8.000000e-01 3.125000e-01 -2.500000e-02
8.000000e-01 3.125000e-01 -3.300000e-02
8.000000e-01 3.333300e-01 -3.300000e-02
8.000000e-01 3.333300e-01 -2.500000e-02
[...]
POINT_DATA 4165
SCALARS u double 1
LOOKUP_TABLE default
-1.147e-07
-8.839e-07
-1.037e-07
-5.254e-07
-1.898e-06
-1.129e-06
-6.727e-07
-3.271e-07
-8.890e-08
-2.927e-06
-1.781e-06
-3.999e-06
-2.482e-06
-1.482e-06
-1.057e-06
-5.217e-06
-3.286e-06
-6.283e-06
-3.983e-06
-2.402e-06
-1.975e-06
-7.192e-08
-2.077e-07
-4.038e-07
-2.373e-07
-1.256e-07
-5.038e-08
-6.242e-07
-8.706e-07
-5.071e-07
-3.642e-07
-1.160e-06
-1.410e-06
-8.224e-07
-6.757e-07
-2.539e-08
-6.440e-08
-1.256e-07
-2.543e-08
-6.202e-09
-3.974e-09
-1.982e-07
-2.827e-07
-1.106e-07
-6.048e-08
-3.852e-07
-4.760e-07
-2.486e-07
-1.805e-07
1.358e-07
-4.766e-06
9.507e-08
-4.100e-06
-9.903e-06
-8.488e-06
-7.057e-06
-3.418e-06
4.147e-08
-1.463e-05
-1.252e-05
-1.935e-05
-1.656e-05
-1.377e-05
-1.041e-05
-2.466e-05
-2.110e-05
-2.939e-05
-2.514e-05
-2.091e-05
-1.755e-05
-2.855e-09
-2.746e-06
-5.649e-06
-4.293e-06
-2.092e-06
-3.412e-08
-8.338e-06
-1.104e-05
-8.426e-06
-6.349e-06
-1.408e-05
-1.678e-05
-1.286e-05
-1.077e-05
-6.017e-08
-1.475e-06
-3.019e-06
-4.504e-06
-6.029e-06
-7.761e-06
-9.290e-06
6.056e-07
-8.567e-06
4.733e-07
-7.950e-06
-1.805e-05
-1.677e-05
-1.543e-05
-7.325e-06
4.158e-07
-2.670e-05
-2.485e-05
-3.531e-05
-3.291e-05
-3.031e-05
-2.287e-05
-4.499e-05
-4.197e-05
-5.360e-05
-5.002e-05
-4.610e-05
-3.867e-05
3.604e-07
-6.683e-06
-1.406e-05
-1.268e-05
-6.043e-06
2.939e-07
-2.084e-05
-2.762e-05
-2.488e-05
-1.878e-05
-3.524e-05
-4.201e-05
-3.784e-05
-3.174e-05
2.226e-07
-5.403e-06
-1.130e-05
-1.671e-05
-2.212e-05
-2.821e-05
-3.363e-05
6.591e-07
-9.975e-06
6.572e-07
-9.947e-06
-2.106e-05
-2.100e-05
-2.080e-05
-9.859e-06
6.520e-07
-3.121e-05
-3.112e-05
-4.134e-05
-4.121e-05
-4.079e-05
-3.081e-05
-5.272e-05
-5.255e-05
-6.285e-05
-6.264e-05
-6.198e-05
-5.201e-05
6.445e-07
-9.701e-06
-2.045e-05
-1.991e-05
-9.455e-06
6.381e-07
-3.027e-05
-4.005e-05
-3.893e-05
-2.944e-05
-5.104e-05
-6.083e-05
-5.908e-05
-4.959e-05
6.298e-07
-9.090e-06
-1.912e-05
-2.826e-05
-3.735e-05
-4.757e-05
-5.666e-05
6.056e-07
-8.566e-06
6.298e-07
-9.089e-06
-1.805e-05
-1.912e-05
-1.991e-05
-9.454e-06
6.381e-07
-2.669e-05
-2.825e-05
-3.531e-05
-3.735e-05
-3.892e-05
-2.944e-05
-4.498e-05
-4.756e-05
-5.360e-05
-5.666e-05
-5.907e-05
-4.958e-05
6.445e-07
-9.700e-06
-2.045e-05
-2.080e-05
-9.858e-06
6.519e-07
-3.027e-05
-4.005e-05
-4.079e-05
-3.081e-05
-5.104e-05
-6.082e-05
-6.198e-05
-5.200e-05
6.572e-07
-9.947e-06
-2.100e-05
-3.111e-05
-4.121e-05
-5.255e-05
-6.264e-05
1.357e-07
-4.766e-06
2.225e-07
-5.403e-06
-9.902e-06
-1.129e-05
-1.268e-05
-6.042e-06
2.938e-07
-1.462e-05
-1.671e-05
-1.935e-05
-2.212e-05
-2.488e-05
-1.878e-05
-2.466e-05
-2.821e-05
-2.939e-05
-3.362e-05
-3.784e-05
-3.174e-05
3.603e-07
-6.682e-06
-1.406e-05
-1.543e-05
-7.324e-06
4.158e-07
-2.084e-05
-2.761e-05
-3.030e-05
-2.287e-05
-3.523e-05
-4.200e-05
-4.609e-05
-3.866e-05
4.733e-07
-7.948e-06
-1.677e-05
-2.485e-05
-3.291e-05
-4.196e-05
-5.001e-05
-1.147e-07
-8.838e-07
-6.018e-08
-1.475e-06
-1.898e-06
-3.019e-06
-4.293e-06
-2.092e-06
-3.416e-08
-2.926e-06
-4.503e-06
-3.999e-06
-6.028e-06
-8.426e-06
-6.348e-06
-5.217e-06
-7.760e-06
-6.282e-06
-9.289e-06
-1.286e-05
-1.077e-05
-2.913e-09
-2.746e-06
-5.648e-06
-7.056e-06
-3.418e-06
4.139e-08
-8.337e-06
-1.104e-05
-1.377e-05
-1.041e-05
-1.408e-05
-1.678e-05
-2.091e-05
-1.755e-05
9.496e-08
-4.100e-06
-8.487e-06
-1.252e-05
-1.656e-05
-2.110e-05
-2.514e-05
-3.979e-09
-6.194e-09
-2.536e-08
-6.430e-08
-2.540e-08
-1.255e-07
-2.374e-07
-1.257e-07
-5.043e-08
-6.043e-08
-1.979e-07
-1.106e-07
-2.823e-07
-5.073e-07
-3.644e-07
-1.803e-07
-3.847e-07
-2.485e-07
-4.755e-07
-8.229e-07
-6.761e-07
-7.194e-08
-2.077e-07
-4.037e-07
-6.720e-07
-3.268e-07
-8.889e-08
-6.241e-07
-8.704e-07
-1.480e-06
-1.056e-06
-1.159e-06
-1.410e-06
-2.400e-06
-1.973e-06
-1.037e-07
-5.253e-07
-1.129e-06
-1.781e-06
-2.482e-06
-3.286e-06
-3.983e-06
-1.140e-07
-1.610e-07
-1.603e-07
-2.050e-07
-1.869e-07
-1.323e-07
-1.398e-07
-1.055e-07
-1.328e-07
-1.836e-07
-4.009e-08
0.000e+00
0.000e+00
-5.512e-08
-1.550e-07
-2.008e-07
-2.229e-07
-2.278e-07
-2.106e-07
-1.754e-07
-2.034e-07
-1.484e-07
-1.580e-07
-2.091e-07
-6.628e-08
0.000e+00
0.000e+00
-7.291e-08
-1.917e-07
-2.174e-07
-2.282e-07
-2.267e-07
-2.225e-07
-2.046e-07
-2.076e-07
-1.589e-07
-1.518e-07
-2.040e-07
-7.973e-08
0.000e+00
-2.502e-08
-8.032e-08
-2.151e-07
-2.267e-07
-2.251e-07
-2.242e-07
-2.306e-07
-2.239e-07
-1.987e-07
-1.466e-07
-1.426e-07
-1.951e-07
-7.468e-08
0.000e+00
0.000e+00
-6.535e-08
-2.313e-07
-2.340e-07
-2.244e-07
-2.255e-07
-2.370e-07
-2.368e-07
-1.942e-07
-1.395e-07
-1.412e-07
-1.953e-07
-6.123e-08
0.000e+00
0.000e+00
-6.051e-08
-2.395e-07
-2.387e-07
-2.270e-07
-2.273e-07
-2.387e-07
-2.387e-07
-1.969e-07
-1.465e-07
-1.488e-07
-1.991e-07
-6.867e-08
0.000e+00
-5.711e-09
-8.587e-08
3.143e-07
1.397e-07
2.941e-07
1.326e-07
-2.192e-08
-1.868e-08
-1.582e-08
1.264e-07
2.769e-07
-1.449e-07
-1.379e-07
-2.169e-07
-2.115e-07
-2.059e-07
-1.311e-07
-2.278e-07
-2.303e-07
-2.318e-07
2.645e-07
1.218e-07
-1.342e-08
-1.115e-08
1.193e-07
2.574e-07
-1.253e-07
-2.009e-07
-1.964e-07
-1.203e-07
-2.328e-07
-2.329e-07
2.551e-07
1.193e-07
-8.080e-09
-2.848e-09
1.219e-07
2.562e-07
-1.153e-07
-1.913e-07
-1.839e-07
-1.082e-07
-2.310e-07
-2.252e-07
7.528e-07
7.293e-07
7.809e-07
7.480e-07
6.935e-07
7.035e-07
7.109e-07
7.631e-07
8.031e-07
6.194e-07
6.267e-07
5.255e-07
5.286e-07
5.281e-07
6.306e-07
4.291e-07
4.200e-07
4.102e-07
8.197e-07
7.744e-07
7.164e-07
7.206e-07
7.822e-07
8.309e-07
6.329e-07
5.267e-07
5.261e-07
6.349e-07
4.023e-07
3.976e-07
8.374e-07
7.871e-07
7.237e-07
7.248e-07
7.904e-07
8.406e-07
6.365e-07
5.261e-07
5.257e-07
6.363e-07
3.958e-07
3.961e-07
1.054e-06
1.046e-06
1.071e-06
1.062e-06
1.021e-06
1.035e-06
1.043e-06
1.071e-06
1.080e-06
9.779e-07
9.900e-07
9.153e-07
9.287e-07
9.390e-07
9.983e-07
8.358e-07
8.552e-07
8.708e-07
1.086e-06
1.076e-06
1.048e-06
1.051e-06
1.079e-06
1.088e-06
1.004e-06
9.464e-07
9.512e-07
1.007e-06
8.824e-07
8.902e-07
1.088e-06
1.079e-06
1.051e-06
1.049e-06
1.076e-06
1.086e-06
1.008e-06
9.536e-07
9.542e-07
1.007e-06
8.946e-07
8.964e-07
7.528e-07
8.358e-07
7.809e-07
8.552e-07
9.153e-07
9.287e-07
9.390e-07
8.708e-07
8.032e-07
9.779e-07
9.900e-07
1.021e-06
1.035e-06
1.043e-06
9.982e-07
1.046e-06
1.062e-06
1.071e-06
8.197e-07
8.824e-07
9.464e-07
9.512e-07
8.902e-07
8.309e-07
1.004e-06
1.048e-06
1.051e-06
1.007e-06
1.076e-06
1.079e-06
8.374e-07
8.946e-07
9.536e-07
9.542e-07
8.965e-07
8.407e-07
1.008e-06
1.051e-06
1.049e-06
1.007e-06
1.079e-06
1.076e-06
3.144e-07
4.291e-07
2.941e-07
4.200e-07
5.255e-07
5.286e-07
5.281e-07
4.102e-07
2.770e-07
6.194e-07
6.267e-07
6.935e-07
7.035e-07
7.109e-07
6.306e-07
7.292e-07
7.480e-07
7.631e-07
2.646e-07
4.024e-07
5.268e-07
5.261e-07
3.976e-07
2.575e-07
6.330e-07
7.165e-07
7.207e-07
6.350e-07
7.744e-07
7.823e-07
2.552e-07
3.959e-07
5.262e-07
5.258e-07
3.962e-07
2.563e-07
6.366e-07
7.237e-07
7.248e-07
6.364e-07
7.871e-07
7.905e-07
-2.046e-07
-2.278e-07
-2.151e-07
-2.303e-07
-2.169e-07
-2.115e-07
-2.059e-07
-2.318e-07
-2.239e-07
-1.449e-07
-1.379e-07
-2.192e-08
-1.866e-08
-1.579e-08
-1.310e-07
1.397e-07
1.327e-07
1.264e-07
-2.314e-07
-2.328e-07
-2.009e-07
-1.964e-07
-2.329e-07
-2.368e-07
-1.252e-07
-1.339e-08
-1.111e-08
-1.203e-07
1.218e-07
1.194e-07
-2.395e-07
-2.310e-07
-1.913e-07
-1.838e-07
-2.252e-07
-2.387e-07
-1.153e-07
-8.037e-09
-2.800e-09
-1.081e-07
1.194e-07
1.219e-07
-2.504e-08
-8.022e-08
0.000e+00
-7.459e-08
-1.519e-07
-1.467e-07
-1.427e-07
-6.525e-08
0.000e+00
-2.040e-07
-1.987e-07
-2.267e-07
-2.251e-07
-2.242e-07
-1.951e-07
-2.225e-07
-2.268e-07
-2.306e-07
0.000e+00
-6.114e-08
-1.396e-07
-1.413e-07
-6.041e-08
0.000e+00
-1.943e-07
-2.244e-07
-2.255e-07
-1.953e-07
-2.340e-07
-2.370e-07
0.000e+00
-6.857e-08
-1.466e-07
-1.489e-07
-8.577e-08
-5.697e-09
-1.970e-07
-2.270e-07
-2.273e-07
-1.991e-07
-2.387e-07
-2.387e-07
2.661e-07
1.100e-07
1.079e-08
-1.305e-08
1.328e-07
3.348e-07
-5.731e-08
-1.074e-07
-1.682e-07
-1.051e-07
-1.318e-07
-1.747e-07
3.555e-07
1.469e-07
-2.360e-08
-2.619e-08
1.499e-07
3.511e-07
-1.368e-07
-2.029e-07
-2.174e-07
-1.498e-07
-1.992e-07
-2.143e-07
3.349e-07
1.462e-07
-2.490e-08
-1.502e-07
-2.201e-07
-2.231e-07
5.862e-07
5.637e-07
5.083e-07
5.866e-07
6.195e-07
6.046e-07
4.348e-07
3.527e-07
4.047e-07
4.980e-07
2.911e-07
3.574e-07
6.416e-07
6.543e-07
6.347e-07
6.620e-07
6.823e-07
6.818e-07
5.479e-07
4.534e-07
4.917e-07
5.834e-07
4.040e-07
4.272e-07
7.195e-07
7.072e-07
6.801e-07
6.061e-07
5.148e-07
4.333e-07
7.685e-07
7.665e-07
7.608e-07
8.513e-07
8.592e-07
8.618e-07
7.518e-07
7.394e-07
8.104e-07
8.374e-07
7.027e-07
7.362e-07
9.350e-07
9.313e-07
9.195e-07
9.678e-07
9.845e-07
9.897e-07
8.967e-07
8.508e-07
8.777e-07
9.351e-07
7.614e-07
7.878e-07
1.028e-06
1.022e-06
1.000e-06
9.604e-07
8.986e-07
8.131e-07
5.861e-07
7.027e-07
7.394e-07
8.104e-07
7.362e-07
6.045e-07
7.517e-07
7.608e-07
8.513e-07
8.374e-07
7.665e-07
8.592e-07
6.415e-07
7.614e-07
8.508e-07
8.776e-07
7.878e-07
6.817e-07
8.967e-07
9.195e-07
9.677e-07
9.351e-07
9.313e-07
9.845e-07
7.194e-07
8.130e-07
8.985e-07
9.604e-07
1.000e-06
1.022e-06
2.661e-07
2.911e-07
3.527e-07
4.046e-07
3.574e-07
3.348e-07
4.347e-07
5.083e-07
5.866e-07
4.980e-07
5.637e-07
6.194e-07
3.555e-07
4.040e-07
4.534e-07
4.917e-07
4.272e-07
3.512e-07
5.479e-07
6.347e-07
6.620e-07
5.834e-07
6.542e-07
6.823e-07
3.350e-07
4.334e-07
5.148e-07
6.061e-07
6.801e-07
7.072e-07
-1.140e-07
-1.318e-07
-1.074e-07
-1.683e-07
-1.747e-07
-1.323e-07
-5.737e-08
1.071e-08
-1.312e-08
-1.051e-07
1.100e-07
1.328e-07
-1.551e-07
-1.992e-07
-2.030e-07
-2.174e-07
-2.143e-07
-1.754e-07
-1.369e-07
-2.365e-08
-2.622e-08
-1.498e-07
1.469e-07
1.499e-07
-1.917e-07
-2.232e-07
-2.201e-07
-1.502e-07
-2.491e-08
1.462e-07
0.000e+00
-4.002e-08
-1.056e-07
-1.329e-07
-5.503e-08
0.000e+00
-1.399e-07
-1.603e-07
-2.050e-07
-1.836e-07
-1.610e-07
-1.869e-07
0.000e+00
-6.618e-08
-1.486e-07
-1.581e-07
-7.280e-08
0.000e+00
-2.034e-07
-2.229e-07
-2.278e-07
-2.092e-07
-2.008e-07
-2.106e-07
0.000e+00
-7.962e-08
-1.590e-07
-2.077e-07
-2.282e-07
-2.174e-07
1.060e-08
3.898e-08
1.148e-08
9.389e-09
1.196e-07
3.451e-08
6.667e-09
4.523e-09
1.317e-08
2.204e-07
7.760e-08
3.356e-07
1.324e-07
3.712e-08
1.829e-08
4.712e-07
1.994e-07
5.888e-07
2.571e-07
8.451e-08
6.248e-08
1.337e-08
4.529e-09
-4.946e-10
-8.804e-10
5.072e-09
1.100e-08
-1.147e-09
1.352e-09
-8.646e-09
-5.327e-09
6.301e-09
1.068e-08
-1.397e-08
-1.150e-08
6.287e-09
3.466e-09
-9.485e-10
-1.745e-09
1.034e-09
2.166e-09
-5.485e-09
-1.003e-08
-9.707e-09
-5.432e-09
-1.500e-08
-1.939e-08
-1.945e-08
-1.482e-08
1.780e-08
1.180e-06
1.878e-08
8.907e-07
2.434e-06
1.848e-06
1.350e-06
6.519e-07
2.257e-08
3.605e-06
2.755e-06
4.786e-06
3.675e-06
2.704e-06
2.019e-06
6.118e-06
4.715e-06
7.299e-06
5.637e-06
4.172e-06
3.482e-06
2.433e-08
4.459e-07
9.267e-07
5.744e-07
2.714e-07
2.263e-08
1.395e-06
1.881e-06
1.206e-06
8.815e-07
2.435e-06
2.926e-06
1.910e-06
1.580e-06
1.665e-08
1.316e-07
2.998e-07
4.855e-07
6.885e-07
9.245e-07
1.131e-06
1.515e-07
3.217e-06
1.419e-07
2.910e-06
6.263e-06
5.764e-06
5.130e-06
2.571e-06
1.133e-07
9.000e-06
8.336e-06
1.171e-05
1.088e-05
9.783e-06
7.464e-06
1.475e-05
1.372e-05
1.746e-05
1.626e-05
1.469e-05
1.238e-05
8.501e-08
2.231e-06
4.467e-06
3.782e-06
1.877e-06
5.857e-08
6.515e-06
8.559e-06
7.284e-06
5.533e-06
1.085e-05
1.289e-05
1.100e-05
9.253e-06
3.205e-08
1.524e-06
3.094e-06
4.547e-06
6.007e-06
7.651e-06
9.111e-06
1.302e-07
3.169e-06
1.317e-07
3.174e-06
6.362e-06
6.371e-06
6.397e-06
3.189e-06
1.359e-07
9.304e-06
9.316e-06
1.225e-05
1.226e-05
1.230e-05
9.350e-06
1.556e-05
1.558e-05
1.851e-05
1.853e-05
1.858e-05
1.562e-05
1.421e-07
3.216e-06
6.438e-06
6.480e-06
3.251e-06
1.488e-07
9.396e-06
1.235e-05
1.235e-05
9.424e-06
1.566e-05
1.861e-05
1.854e-05
1.562e-05
1.535e-07
3.287e-06
6.475e-06
9.344e-06
1.218e-05
1.536e-05
1.820e-05
1.514e-07
3.218e-06
1.535e-07
3.288e-06
6.264e-06
6.476e-06
6.481e-06
3.251e-06
1.488e-07
9.001e-06
9.345e-06
1.171e-05
1.218e-05
1.235e-05
9.425e-06
1.475e-05
1.537e-05
1.746e-05
1.820e-05
1.854e-05
1.562e-05
1.421e-07
3.216e-06
6.438e-06
6.398e-06
3.189e-06
1.359e-07
9.396e-06
1.235e-05
1.230e-05
9.351e-06
1.566e-05
1.861e-05
1.858e-05
1.563e-05
1.317e-07
3.174e-06
6.371e-06
9.317e-06
1.226e-05
1.558e-05
1.853e-05
1.760e-08
1.181e-06
3.190e-08
1.524e-06
2.436e-06
3.095e-06
3.783e-06
1.877e-06
5.846e-08
3.607e-06
4.549e-06
4.788e-06
6.009e-06
7.285e-06
5.534e-06
6.121e-06
7.653e-06
7.303e-06
9.114e-06
1.101e-05
9.255e-06
8.492e-08
2.231e-06
4.468e-06
5.130e-06
2.572e-06
1.132e-07
6.517e-06
8.560e-06
9.784e-06
7.465e-06
1.086e-05
1.290e-05
1.469e-05
1.238e-05
1.419e-07
2.911e-06
5.765e-06
8.337e-06
1.088e-05
1.373e-05
1.626e-05
1.057e-08
3.905e-08
1.661e-08
1.316e-07
1.198e-07
3.001e-07
5.750e-07
2.716e-07
2.255e-08
2.206e-07
4.860e-07
3.359e-07
6.892e-07
1.207e-06
8.824e-07
4.717e-07
9.253e-07
5.893e-07
1.132e-06
1.912e-06
1.582e-06
2.422e-08
4.462e-07
9.275e-07
1.351e-06
6.524e-07
2.243e-08
1.397e-06
1.883e-06
2.706e-06
2.021e-06
2.438e-06
2.929e-06
4.175e-06
3.485e-06
1.860e-08
8.914e-07
1.850e-06
2.757e-06
3.677e-06
4.718e-06
5.641e-06
2.167e-09
1.037e-09
6.277e-09
3.467e-09
-1.738e-09
-9.314e-10
-8.458e-10
5.085e-09
1.100e-08
-5.416e-09
-5.452e-09
-9.680e-09
-9.980e-09
-8.556e-09
-5.267e-09
-1.478e-08
-1.494e-08
-1.940e-08
-1.931e-08
-1.382e-08
-1.138e-08
1.337e-08
4.552e-09
-4.375e-10
6.726e-09
4.553e-09
1.316e-08
-1.057e-09
1.476e-09
3.720e-08
1.837e-08
6.463e-09
1.088e-08
8.461e-08
6.257e-08
1.146e-08
9.445e-09
3.464e-08
7.779e-08
1.326e-07
1.997e-07
2.574e-07
2.441e-09
-1.388e-08
-1.568e-08
-2.770e-08
-2.165e-08
-4.364e-09
-1.275e-08
-8.319e-09
-9.480e-09
-2.236e-08
7.199e-09
0.000e+00
0.000e+00
3.398e-09
-8.883e-09
-1.978e-08
-2.429e-08
-1.330e-08
-1.409e-08
-1.052e-08
-1.800e-08
-5.550e-09
3.914e-11
-7.243e-09
1.743e-09
0.000e+00
0.000e+00
3.593e-09
-1.053e-08
-7.026e-09
-2.357e-10
1.253e-08
-5.944e-10
-1.115e-08
6.608e-09
8.606e-09
2.155e-08
2.090e-08
8.821e-09
0.000e+00
5.856e-09
1.414e-08
-1.484e-08
3.532e-09
2.351e-08
3.096e-08
3.752e-09
-2.394e-08
3.342e-08
3.391e-08
3.834e-08
4.224e-08
1.821e-08
0.000e+00
0.000e+00
1.888e-08
-4.018e-08
-1.818e-09
3.204e-08
1.898e-08
-1.496e-08
-6.335e-08
4.308e-08
3.484e-08
2.436e-08
3.004e-08
1.599e-08
0.000e+00
0.000e+00
6.933e-09
-8.812e-08
-4.364e-08
-2.063e-08
-7.488e-09
1.531e-09
-9.032e-09
0.000e+00
1.392e-08
2.971e-08
-2.220e-08
2.198e-08
4.576e-08
6.009e-08
7.295e-08
1.801e-08
-5.143e-08
4.915e-08
7.326e-08
3.840e-08
6.219e-08
7.918e-08
9.160e-08
1.276e-08
2.419e-08
2.959e-08
-6.606e-08
2.159e-08
8.207e-08
8.322e-08
3.785e-08
-5.361e-08
9.748e-08
8.346e-08
6.798e-08
8.327e-08
2.631e-08
1.204e-08
8.114e-09
6.730e-08
6.945e-08
4.735e-08
2.786e-08
-1.749e-08
3.792e-07
3.299e-07
4.267e-07
3.551e-07
2.580e-07
2.636e-07
2.711e-07
3.810e-07
4.765e-07
1.933e-07
1.941e-07
1.302e-07
1.265e-07
1.330e-07
2.011e-07
6.263e-08
4.170e-08
3.136e-08
5.274e-07
4.064e-07
2.825e-07
3.043e-07
4.308e-07
5.748e-07
2.182e-07
1.556e-07
1.946e-07
2.485e-07
4.028e-08
7.702e-08
6.046e-07
4.551e-07
3.466e-07
2.959e-07
2.421e-07
1.437e-07
2.793e-07
2.819e-07
3.067e-07
3.084e-07
2.903e-07
3.145e-07
3.473e-07
3.446e-07
3.440e-07
3.053e-07
3.278e-07
3.276e-07
3.523e-07
3.801e-07
3.565e-07
3.556e-07
3.899e-07
4.257e-07
3.953e-07
3.948e-07
3.941e-07
4.592e-07
4.626e-07
4.640e-07
3.965e-07
4.132e-07
4.586e-07
4.556e-07
4.623e-07
4.984e-07
5.525e-07
5.506e-07
5.455e-07
5.390e-07
5.327e-07
5.429e-07
3.792e-07
3.556e-07
4.267e-07
3.899e-07
3.276e-07
3.523e-07
3.801e-07
4.257e-07
4.765e-07
3.054e-07
3.278e-07
2.903e-07
3.145e-07
3.473e-07
3.565e-07
2.819e-07
3.084e-07
3.446e-07
5.274e-07
4.623e-07
4.132e-07
4.586e-07
4.984e-07
5.749e-07
3.965e-07
3.941e-07
4.592e-07
4.556e-07
3.948e-07
4.626e-07
6.047e-07
5.429e-07
5.326e-07
5.390e-07
5.454e-07
5.506e-07
1.373e-08
6.248e-08
-2.243e-08
4.152e-08
1.301e-07
1.264e-07
1.329e-07
3.116e-08
-5.169e-08
1.933e-07
1.940e-07
2.579e-07
2.635e-07
2.710e-07
2.010e-07
3.299e-07
3.551e-07
3.810e-07
-6.633e-08
4.008e-08
1.555e-07
1.945e-07
7.683e-08
-5.390e-08
2.181e-07
2.824e-07
3.042e-07
2.484e-07
4.064e-07
4.308e-07
7.872e-09
1.435e-07
2.420e-07
2.958e-07
3.466e-07
4.551e-07
-1.115e-08
1.275e-08
-1.484e-08
2.417e-08
3.837e-08
6.216e-08
7.915e-08
2.957e-08
-2.394e-08
4.908e-08
7.319e-08
4.564e-08
5.997e-08
7.284e-08
9.154e-08
2.953e-08
2.181e-08
1.783e-08
-4.018e-08
2.630e-08
8.343e-08
6.795e-08
1.202e-08
-6.334e-08
9.742e-08
8.197e-08
8.314e-08
8.322e-08
2.142e-08
3.769e-08
-8.811e-08
-1.750e-08
2.783e-08
4.729e-08
6.937e-08
6.717e-08
5.861e-09
1.413e-08
0.000e+00
1.819e-08
2.156e-08
3.393e-08
3.836e-08
1.885e-08
0.000e+00
2.091e-08
3.343e-08
1.255e-08
2.354e-08
3.098e-08
4.225e-08
-5.937e-10
3.531e-09
3.750e-09
0.000e+00
1.596e-08
3.486e-08
2.436e-08
6.914e-09
0.000e+00
4.309e-08
3.207e-08
1.900e-08
3.004e-08
-1.821e-09
-1.497e-08
0.000e+00
-9.035e-09
1.513e-09
-7.494e-09
-2.061e-08
-4.365e-08
8.488e-08
3.175e-08
1.283e-08
7.773e-09
4.425e-08
1.127e-07
4.543e-09
-8.207e-09
-2.620e-08
-9.002e-09
-1.571e-08
-2.713e-08
1.079e-07
4.891e-08
1.073e-08
1.946e-08
4.587e-08
8.453e-08
-9.949e-09
-2.518e-08
-1.010e-08
2.715e-09
-2.444e-08
-1.473e-08
5.122e-08
3.848e-08
3.170e-08
2.415e-08
1.277e-08
-1.333e-09
1.825e-07
1.988e-07
1.753e-07
2.176e-07
2.370e-07
2.158e-07
1.337e-07
9.127e-08
1.155e-07
1.664e-07
6.897e-08
9.969e-08
2.529e-07
2.622e-07
2.386e-07
2.479e-07
2.840e-07
2.925e-07
1.849e-07
1.325e-07
1.394e-07
1.930e-07
1.116e-07
1.049e-07
3.345e-07
3.062e-07
2.533e-07
1.944e-07
1.368e-07
8.619e-08
1.634e-07
1.658e-07
1.727e-07
2.044e-07
1.955e-07
1.924e-07
1.831e-07
1.954e-07
2.322e-07
2.180e-07
2.008e-07
2.335e-07
2.169e-07
2.203e-07
2.304e-07
2.517e-07
2.414e-07
2.379e-07
2.453e-07
2.593e-07
2.823e-07
2.668e-07
2.624e-07
2.921e-07
2.576e-07
2.609e-07
2.706e-07
2.859e-07
3.046e-07
3.230e-07
1.825e-07
2.008e-07
1.954e-07
2.322e-07
2.335e-07
2.158e-07
1.831e-07
1.727e-07
2.044e-07
2.180e-07
1.658e-07
1.955e-07
2.529e-07
2.624e-07
2.593e-07
2.823e-07
2.921e-07
2.925e-07
2.453e-07
2.304e-07
2.517e-07
2.668e-07
2.204e-07
2.414e-07
3.344e-07
3.230e-07
3.046e-07
2.859e-07
2.706e-07
2.609e-07
8.467e-08
6.881e-08
9.116e-08
1.154e-07
9.952e-08
1.125e-07
1.336e-07
1.752e-07
2.175e-07
1.664e-07
1.987e-07
2.369e-07
1.077e-07
1.114e-07
1.324e-07
1.392e-07
1.047e-07
8.434e-08
1.848e-07
2.385e-07
2.479e-07
1.930e-07
2.621e-07
2.839e-07
5.103e-08
8.602e-08
1.367e-07
1.944e-07
2.532e-07
3.061e-07
2.426e-09
-1.575e-08
-8.284e-09
-2.627e-08
-2.718e-08
-4.377e-09
4.438e-09
1.269e-08
7.640e-09
-9.105e-09
3.158e-08
4.408e-08
-8.897e-09
-2.447e-08
-2.525e-08
-1.016e-08
-1.476e-08
-1.054e-08
-1.005e-08
1.060e-08
1.933e-08
2.620e-09
4.874e-08
4.570e-08
-1.054e-08
-1.357e-09
1.272e-08
2.407e-08
3.157e-08
3.831e-08
0.000e+00
7.198e-09
-8.338e-09
-9.506e-09
3.400e-09
0.000e+00
-1.277e-08
-1.569e-08
-2.771e-08
-2.237e-08
-1.389e-08
-2.166e-08
0.000e+00
1.743e-09
-5.570e-09
2.739e-11
3.590e-09
0.000e+00
-1.801e-08
-2.430e-08
-1.330e-08
-7.245e-09
-1.979e-08
-1.409e-08
0.000e+00
8.814e-09
8.603e-09
6.612e-09
-2.229e-10
-7.027e-09
-1.056e-08
-3.870e-08
-1.145e-08
-9.171e-09
-1.190e-07
-3.408e-08
-6.329e-09
-4.347e-09
-1.314e-08
-2.196e-07
-7.696e-08
-3.345e-07
-1.315e-07
-3.647e-08
-1.780e-08
-4.699e-07
-1.983e-07
-5.872e-07
-2.558e-07
-8.352e-08
-6.165e-08
-1.335e-08
-4.401e-09
7.395e-10
1.034e-09
-4.994e-09
-1.099e-08
1.504e-09
-8.790e-10
8.963e-09
5.559e-09
-5.694e-09
-9.954e-09
1.448e-08
1.192e-08
-6.279e-09
-3.438e-09
1.022e-09
1.754e-09
-1.036e-09
-2.163e-09
5.613e-09
1.022e-08
9.783e-09
5.467e-09
1.526e-08
1.972e-08
1.964e-08
1.495e-08
-1.760e-08
-1.180e-06
-1.860e-08
-8.905e-07
-2.434e-06
-1.848e-06
-1.350e-06
-6.516e-07
-2.243e-08
-3.604e-06
-2.754e-06
-4.785e-06
-3.674e-06
-2.703e-06
-2.018e-06
-6.116e-06
-4.714e-06
-7.297e-06
-5.636e-06
-4.170e-06
-3.481e-06
-2.422e-08
-4.456e-07
-9.261e-07
-5.738e-07
-2.710e-07
-2.255e-08
-1.395e-06
-1.880e-06
-1.205e-06
-8.806e-07
-2.434e-06
-2.925e-06
-1.908e-06
-1.579e-06
-1.660e-08
-1.312e-07
-2.991e-07
-4.846e-07
-6.874e-07
-9.230e-07
-1.129e-06
-1.514e-07
-3.217e-06
-1.419e-07
-2.910e-06
-6.263e-06
-5.764e-06
-5.129e-06
-2.571e-06
-1.132e-07
-8.999e-06
-8.335e-06
-1.171e-05