# vtk DataFile Version 3.0
vtk output
ASCII
DATASET UNSTRUCTURED_GRID
POINTS 561 double
5.000000e-01 5.000000e-07 0.000000e+00
5.000001e-01 6.250050e-02 0.000000e+00
5.312500e-01 5.312500e-07 0.000000e+00
5.312501e-01 6.250053e-02 0.000000e+00
5.000001e-01 1.250005e-01 0.000000e+00
5.312501e-01 1.250005e-01 0.000000e+00
5.625001e-01 1.250006e-01 0.000000e+00
5.625001e-01 6.250056e-02 0.000000e+00
5.625000e-01 5.625000e-07 0.000000e+00
5.000002e-01 1.875005e-01 0.000000e+00
5.312502e-01 1.875005e-01 0.000000e+00
5.000002e-01 2.500005e-01 0.000000e+00
5.312502e-01 2.500005e-01 0.000000e+00
5.625002e-01 2.500006e-01 0.000000e+00
5.625002e-01 1.875006e-01 0.000000e+00
5.000003e-01 3.125005e-01 0.000000e+00
5.312503e-01 3.125005e-01 0.000000e+00
5.000004e-01 3.750005e-01 0.000000e+00
5.312504e-01 3.750005e-01 0.000000e+00
5.625004e-01 3.750006e-01 0.000000e+00
5.625003e-01 3.125006e-01 0.000000e+00
5.000004e-01 4.375005e-01 0.000000e+00
5.312504e-01 4.375005e-01 0.000000e+00
5.000005e-01 5.000005e-01 0.000000e+00
5.312505e-01 5.000005e-01 0.000000e+00
5.625005e-01 5.000005e-01 0.000000e+00
5.625004e-01 4.375006e-01 0.000000e+00
5.000005e-01 5.625005e-01 0.000000e+00
5.312505e-01 5.625005e-01 0.000000e+00
5.000006e-01 6.250005e-01 0.000000e+00
5.312506e-01 6.250005e-01 0.000000e+00
5.625006e-01 6.250005e-01 0.000000e+00
5.625005e-01 5.625005e-01 0.000000e+00
5.000007e-01 6.875005e-01 0.000000e+00
5.312507e-01 6.875005e-01 0.000000e+00
5.000008e-01 7.500005e-01 0.000000e+00
5.312508e-01 7.500005e-01 0.000000e+00
5.625008e-01 7.500005e-01 0.000000e+00
5.625007e-01 6.875005e-01 0.000000e+00
5.000008e-01 8.125005e-01 0.000000e+00
5.312508e-01 8.125005e-01 0.000000e+00
5.000009e-01 8.750005e-01 0.000000e+00
5.312509e-01 8.750005e-01 0.000000e+00
5.625009e-01 8.750005e-01 0.000000e+00
5.625008e-01 8.125005e-01 0.000000e+00
5.000010e-01 9.375005e-01 0.000000e+00
5.312510e-01 9.375005e-01 0.000000e+00
5.000010e-01 1.000000e+00 0.000000e+00
5.312510e-01 1.000000e+00 0.000000e+00
5.625010e-01 1.000001e+00 0.000000e+00
5.625010e-01 9.375005e-01 0.000000e+00
5.937500e-01 5.937500e-07 0.000000e+00
5.937501e-01 6.250060e-02 0.000000e+00
5.937501e-01 1.250006e-01 0.000000e+00
6.250001e-01 1.250006e-01 0.000000e+00
6.250001e-01 6.250063e-02 0.000000e+00
6.250000e-01 6.250000e-07 0.000000e+00
5.937502e-01 1.875006e-01 0.000000e+00
5.937502e-01 2.500006e-01 0.000000e+00
6.250002e-01 2.500006e-01 0.000000e+00
6.250002e-01 1.875006e-01 0.000000e+00
5.937503e-01 3.125006e-01 0.000000e+00
5.937504e-01 3.750006e-01 0.000000e+00
6.250004e-01 3.750006e-01 0.000000e+00
6.250003e-01 3.125006e-01 0.000000e+00
5.937504e-01 4.375006e-01 0.000000e+00
5.937505e-01 5.000006e-01 0.000000e+00
6.250005e-01 5.000006e-01 0.000000e+00
6.250004e-01 4.375006e-01 0.000000e+00
5.937505e-01 5.625006e-01 0.000000e+00
5.937506e-01 6.250006e-01 0.000000e+00
6.250006e-01 6.250006e-01 0.000000e+00
6.250005e-01 5.625006e-01 0.000000e+00
5.937507e-01 6.875006e-01 0.000000e+00
5.937508e-01 7.500006e-01 0.000000e+00
6.250008e-01 7.500006e-01 0.000000e+00
6.250007e-01 6.875006e-01 0.000000e+00
5.937508e-01 8.125006e-01 0.000000e+00
5.937509e-01 8.750006e-01 0.000000e+00
6.250009e-01 8.750006e-01 0.000000e+00
6.250008e-01 8.125006e-01 0.000000e+00
5.937510e-01 9.375006e-01 0.000000e+00
5.937510e-01 1.000001e+00 0.000000e+00
6.250010e-01 1.000001e+00 0.000000e+00
6.250010e-01 9.375006e-01 0.000000e+00
6.562500e-01 6.562500e-07 0.000000e+00
6.562501e-01 6.250066e-02 0.000000e+00
6.562501e-01 1.250007e-01 0.000000e+00
6.875001e-01 1.250007e-01 0.000000e+00
6.875001e-01 6.250069e-02 0.000000e+00
6.875000e-01 6.875000e-07 0.000000e+00
6.562502e-01 1.875007e-01 0.000000e+00
6.562502e-01 2.500007e-01 0.000000e+00
6.875002e-01 2.500007e-01 0.000000e+00
6.875002e-01 1.875007e-01 0.000000e+00
6.562503e-01 3.125007e-01 0.000000e+00
6.562504e-01 3.750007e-01 0.000000e+00
6.875004e-01 3.750007e-01 0.000000e+00
6.875003e-01 3.125007e-01 0.000000e+00
6.562504e-01 4.375007e-01 0.000000e+00
6.562505e-01 5.000007e-01 0.000000e+00
6.875005e-01 5.000007e-01 0.000000e+00
6.875004e-01 4.375007e-01 0.000000e+00
6.562505e-01 5.625007e-01 0.000000e+00
6.562506e-01 6.250007e-01 0.000000e+00
6.875006e-01 6.250007e-01 0.000000e+00
6.875005e-01 5.625007e-01 0.000000e+00
6.562507e-01 6.875007e-01 0.000000e+00
6.562508e-01 7.500007e-01 0.000000e+00
6.875008e-01 7.500007e-01 0.000000e+00
6.875007e-01 6.875007e-01 0.000000e+00
6.562508e-01 8.125007e-01 0.000000e+00
6.562509e-01 8.750007e-01 0.000000e+00
6.875009e-01 8.750007e-01 0.000000e+00
6.875008e-01 8.125007e-01 0.000000e+00
6.562510e-01 9.375007e-01 0.000000e+00
6.562510e-01 1.000001e+00 0.000000e+00
6.875010e-01 1.000001e+00 0.000000e+00
6.875010e-01 9.375007e-01 0.000000e+00
7.187500e-01 7.187500e-07 0.000000e+00
7.187501e-01 6.250072e-02 0.000000e+00
7.187501e-01 1.250007e-01 0.000000e+00
7.500001e-01 1.250007e-01 0.000000e+00
7.500001e-01 6.250075e-02 0.000000e+00
7.500000e-01 7.500000e-07 0.000000e+00
7.187502e-01 1.875007e-01 0.000000e+00
7.187502e-01 2.500007e-01 0.000000e+00
7.500002e-01 2.500007e-01 0.000000e+00
7.500002e-01 1.875007e-01 0.000000e+00
7.187503e-01 3.125007e-01 0.000000e+00
7.187504e-01 3.750007e-01 0.000000e+00
7.500004e-01 3.750007e-01 0.000000e+00
7.500003e-01 3.125007e-01 0.000000e+00
7.187504e-01 4.375007e-01 0.000000e+00
7.187505e-01 5.000007e-01 0.000000e+00
7.500005e-01 5.000008e-01 0.000000e+00
7.500004e-01 4.375007e-01 0.000000e+00
7.187505e-01 5.625007e-01 0.000000e+00
7.187506e-01 6.250007e-01 0.000000e+00
7.500006e-01 6.250008e-01 0.000000e+00
7.500005e-01 5.625008e-01 0.000000e+00
7.187507e-01 6.875007e-01 0.000000e+00
7.187508e-01 7.500007e-01 0.000000e+00
7.500008e-01 7.500008e-01 0.000000e+00
7.500007e-01 6.875008e-01 0.000000e+00
7.187508e-01 8.125007e-01 0.000000e+00
7.187509e-01 8.750007e-01 0.000000e+00
7.500009e-01 8.750008e-01 0.000000e+00
7.500008e-01 8.125008e-01 0.000000e+00
7.187510e-01 9.375007e-01 0.000000e+00
7.187510e-01 1.000001e+00 0.000000e+00
7.500010e-01 1.000001e+00 0.000000e+00
7.500010e-01 9.375008e-01 0.000000e+00
7.812500e-01 7.812500e-07 0.000000e+00
7.812501e-01 6.250078e-02 0.000000e+00
7.812501e-01 1.250008e-01 0.000000e+00
8.125001e-01 1.250008e-01 0.000000e+00
8.125001e-01 6.250081e-02 0.000000e+00
8.125000e-01 8.125000e-07 0.000000e+00
7.812502e-01 1.875008e-01 0.000000e+00
7.812502e-01 2.500008e-01 0.000000e+00
8.125002e-01 2.500008e-01 0.000000e+00
8.125002e-01 1.875008e-01 0.000000e+00
7.812503e-01 3.125008e-01 0.000000e+00
7.812504e-01 3.750008e-01 0.000000e+00
8.125004e-01 3.750008e-01 0.000000e+00
8.125003e-01 3.125008e-01 0.000000e+00
7.812504e-01 4.375008e-01 0.000000e+00
7.812505e-01 5.000008e-01 0.000000e+00
8.125005e-01 5.000008e-01 0.000000e+00
8.125004e-01 4.375008e-01 0.000000e+00
7.812505e-01 5.625008e-01 0.000000e+00
7.812506e-01 6.250008e-01 0.000000e+00
8.125006e-01 6.250008e-01 0.000000e+00
8.125005e-01 5.625008e-01 0.000000e+00
7.812507e-01 6.875008e-01 0.000000e+00
7.812508e-01 7.500008e-01 0.000000e+00
8.125008e-01 7.500008e-01 0.000000e+00
8.125007e-01 6.875008e-01 0.000000e+00
7.812508e-01 8.125008e-01 0.000000e+00
7.812509e-01 8.750008e-01 0.000000e+00
8.125009e-01 8.750008e-01 0.000000e+00
8.125008e-01 8.125008e-01 0.000000e+00
7.812510e-01 9.375008e-01 0.000000e+00
7.812510e-01 1.000001e+00 0.000000e+00
8.125010e-01 1.000001e+00 0.000000e+00
8.125010e-01 9.375008e-01 0.000000e+00
8.437500e-01 8.437500e-07 0.000000e+00
8.437501e-01 6.250084e-02 0.000000e+00
8.437501e-01 1.250008e-01 0.000000e+00
8.750001e-01 1.250009e-01 0.000000e+00
8.750001e-01 6.250087e-02 0.000000e+00
8.750000e-01 8.750000e-07 0.000000e+00
8.437502e-01 1.875008e-01 0.000000e+00
8.437502e-01 2.500008e-01 0.000000e+00
8.750002e-01 2.500009e-01 0.000000e+00
8.750002e-01 1.875009e-01 0.000000e+00
8.437503e-01 3.125008e-01 0.000000e+00
8.437504e-01 3.750008e-01 0.000000e+00
8.750004e-01 3.750009e-01 0.000000e+00
8.750003e-01 3.125009e-01 0.000000e+00
8.437504e-01 4.375008e-01 0.000000e+00
8.437505e-01 5.000008e-01 0.000000e+00
8.750005e-01 5.000009e-01 0.000000e+00
8.750004e-01 4.375009e-01 0.000000e+00
8.437505e-01 5.625008e-01 0.000000e+00
8.437506e-01 6.250008e-01 0.000000e+00
8.750006e-01 6.250009e-01 0.000000e+00
8.750005e-01 5.625009e-01 0.000000e+00
8.437507e-01 6.875008e-01 0.000000e+00
8.437508e-01 7.500008e-01 0.000000e+00
8.750008e-01 7.500009e-01 0.000000e+00
8.750007e-01 6.875009e-01 0.000000e+00
8.437508e-01 8.125008e-01 0.000000e+00
8.437509e-01 8.750008e-01 0.000000e+00
8.750009e-01 8.750009e-01 0.000000e+00
8.750008e-01 8.125009e-01 0.000000e+00
8.437510e-01 9.375008e-01 0.000000e+00
8.437510e-01 1.000001e+00 0.000000e+00
8.750010e-01 1.000001e+00 0.000000e+00
8.750010e-01 9.375009e-01 0.000000e+00
9.062500e-01 9.062500e-07 0.000000e+00
9.062501e-01 6.250091e-02 0.000000e+00
9.062501e-01 1.250009e-01 0.000000e+00
9.375001e-01 1.250009e-01 0.000000e+00
9.375001e-01 6.250094e-02 0.000000e+00
9.375000e-01 9.375000e-07 0.000000e+00
9.062502e-01 1.875009e-01 0.000000e+00
9.062502e-01 2.500009e-01 0.000000e+00
9.375002e-01 2.500009e-01 0.000000e+00
9.375002e-01 1.875009e-01 0.000000e+00
9.062503e-01 3.125009e-01 0.000000e+00
9.062504e-01 3.750009e-01 0.000000e+00
9.375004e-01 3.750009e-01 0.000000e+00
9.375003e-01 3.125009e-01 0.000000e+00
9.062504e-01 4.375009e-01 0.000000e+00
9.062505e-01 5.000009e-01 0.000000e+00
9.375005e-01 5.000010e-01 0.000000e+00
9.375004e-01 4.375009e-01 0.000000e+00
9.062505e-01 5.625009e-01 0.000000e+00
9.062506e-01 6.250009e-01 0.000000e+00
9.375006e-01 6.250010e-01 0.000000e+00
9.375005e-01 5.625010e-01 0.000000e+00
9.062507e-01 6.875009e-01 0.000000e+00
9.062508e-01 7.500009e-01 0.000000e+00
9.375008e-01 7.500010e-01 0.000000e+00
9.375007e-01 6.875010e-01 0.000000e+00
9.062508e-01 8.125009e-01 0.000000e+00
9.062509e-01 8.750009e-01 0.000000e+00
9.375009e-01 8.750010e-01 0.000000e+00
9.375008e-01 8.125010e-01 0.000000e+00
9.062510e-01 9.375009e-01 0.000000e+00
9.062510e-01 1.000001e+00 0.000000e+00
9.375010e-01 1.000001e+00 0.000000e+00
[...]
POINT_DATA 561
SCALARS u double 1
LOOKUP_TABLE default
0.000e+00
0.000e+00
0.000e+00
0.000e+00
0.000e+00
0.000e+00
0.000e+00
0.000e+00
0.000e+00
0.000e+00
0.000e+00
0.000e+00
0.000e+00
0.000e+00
0.000e+00
0.000e+00
0.000e+00
0.000e+00
0.000e+00
0.000e+00
0.000e+00
0.000e+00
0.000e+00
0.000e+00
0.000e+00
0.000e+00
0.000e+00
0.000e+00
0.000e+00
0.000e+00
0.000e+00
0.000e+00
0.000e+00
0.000e+00
0.000e+00
0.000e+00
0.000e+00
0.000e+00
0.000e+00
0.000e+00
0.000e+00
0.000e+00
0.000e+00
0.000e+00
0.000e+00
0.000e+00
0.000e+00
0.000e+00
0.000e+00
0.000e+00
0.000e+00
0.000e+00
0.000e+00
0.000e+00
0.000e+00
0.000e+00
0.000e+00
0.000e+00
0.000e+00
0.000e+00
0.000e+00
0.000e+00
0.000e+00
0.000e+00
0.000e+00
0.000e+00
0.000e+00
0.000e+00
0.000e+00
0.000e+00
0.000e+00
0.000e+00
0.000e+00
0.000e+00
0.000e+00
0.000e+00
0.000e+00
0.000e+00
0.000e+00
0.000e+00
0.000e+00
0.000e+00
0.000e+00
0.000e+00
0.000e+00
0.000e+00
0.000e+00
0.000e+00
0.000e+00
0.000e+00
0.000e+00
0.000e+00
0.000e+00
0.000e+00
0.000e+00
0.000e+00
0.000e+00
0.000e+00
0.000e+00
0.000e+00
0.000e+00
0.000e+00
0.000e+00
0.000e+00
0.000e+00
0.000e+00
0.000e+00
0.000e+00
0.000e+00
0.000e+00
0.000e+00
0.000e+00
0.000e+00
0.000e+00
0.000e+00
0.000e+00
0.000e+00
0.000e+00
0.000e+00
0.000e+00
0.000e+00
0.000e+00
0.000e+00
0.000e+00
0.000e+00
0.000e+00
0.000e+00
0.000e+00
0.000e+00
0.000e+00
0.000e+00
0.000e+00
0.000e+00
0.000e+00
0.000e+00
0.000e+00
0.000e+00
0.000e+00
0.000e+00
0.000e+00
0.000e+00
0.000e+00
0.000e+00
0.000e+00
0.000e+00
0.000e+00
0.000e+00
0.000e+00
0.000e+00
0.000e+00
0.000e+00
0.000e+00
0.000e+00
0.000e+00
0.000e+00
0.000e+00
0.000e+00
0.000e+00
0.000e+00
0.000e+00
0.000e+00
0.000e+00
0.000e+00
0.000e+00
0.000e+00
0.000e+00
0.000e+00
0.000e+00
0.000e+00
0.000e+00
0.000e+00
0.000e+00
0.000e+00
0.000e+00
0.000e+00
0.000e+00
0.000e+00
0.000e+00
0.000e+00
0.000e+00
0.000e+00
0.000e+00
0.000e+00
0.000e+00
0.000e+00
0.000e+00
0.000e+00
0.000e+00
0.000e+00
0.000e+00
0.000e+00
0.000e+00
0.000e+00
0.000e+00
0.000e+00
0.000e+00
0.000e+00
0.000e+00
0.000e+00
0.000e+00
0.000e+00
0.000e+00
0.000e+00
0.000e+00
0.000e+00
0.000e+00
0.000e+00
0.000e+00
0.000e+00
0.000e+00
0.000e+00
0.000e+00
0.000e+00
0.000e+00
0.000e+00
0.000e+00
0.000e+00
0.000e+00
0.000e+00
0.000e+00
0.000e+00
0.000e+00
0.000e+00
0.000e+00
0.000e+00
0.000e+00
0.000e+00
0.000e+00
0.000e+00
0.000e+00
0.000e+00
0.000e+00
0.000e+00
0.000e+00
0.000e+00
0.000e+00
0.000e+00
0.000e+00
0.000e+00
0.000e+00
0.000e+00
0.000e+00
0.000e+00
0.000e+00
0.000e+00
0.000e+00
0.000e+00
0.000e+00
0.000e+00
0.000e+00
0.000e+00
0.000e+00
0.000e+00
0.000e+00
0.000e+00
0.000e+00
0.000e+00
0.000e+00
0.000e+00
0.000e+00
0.000e+00
0.000e+00
0.000e+00
0.000e+00
0.000e+00
0.000e+00
0.000e+00
0.000e+00
0.000e+00
0.000e+00
0.000e+00
0.000e+00
0.000e+00
0.000e+00
0.000e+00
0.000e+00
0.000e+00
0.000e+00
0.000e+00
0.000e+00
0.000e+00
0.000e+00
0.000e+00
0.000e+00
0.000e+00
0.000e+00
0.000e+00
0.000e+00
0.000e+00
0.000e+00
0.000e+00
0.000e+00
0.000e+00
0.000e+00
0.000e+00
0.000e+00
0.000e+00
0.000e+00
0.000e+00
0.000e+00
0.000e+00
0.000e+00
0.000e+00
0.000e+00
0.000e+00
0.000e+00
0.000e+00
0.000e+00
0.000e+00
0.000e+00
0.000e+00
0.000e+00
0.000e+00
0.000e+00
0.000e+00
0.000e+00
0.000e+00
0.000e+00
0.000e+00
0.000e+00
0.000e+00
0.000e+00
0.000e+00
0.000e+00
0.000e+00
0.000e+00
0.000e+00
0.000e+00
0.000e+00
0.000e+00
0.000e+00
0.000e+00
0.000e+00
0.000e+00
0.000e+00
0.000e+00
0.000e+00
0.000e+00
0.000e+00
0.000e+00
0.000e+00
0.000e+00
0.000e+00
0.000e+00
0.000e+00
0.000e+00
0.000e+00
0.000e+00
0.000e+00
0.000e+00
0.000e+00
0.000e+00
0.000e+00
0.000e+00
0.000e+00
0.000e+00
0.000e+00
0.000e+00
0.000e+00
0.000e+00
0.000e+00
0.000e+00
0.000e+00
0.000e+00
0.000e+00
0.000e+00
0.000e+00
0.000e+00
0.000e+00
0.000e+00
0.000e+00
0.000e+00
0.000e+00
0.000e+00
0.000e+00
0.000e+00
0.000e+00
0.000e+00
0.000e+00
0.000e+00
0.000e+00
0.000e+00
0.000e+00
0.000e+00
0.000e+00
0.000e+00
0.000e+00
0.000e+00
0.000e+00
0.000e+00
0.000e+00
0.000e+00
0.000e+00
0.000e+00
0.000e+00
0.000e+00
0.000e+00
0.000e+00
0.000e+00
0.000e+00
0.000e+00
0.000e+00
0.000e+00
0.000e+00
0.000e+00
0.000e+00
0.000e+00
0.000e+00
0.000e+00
0.000e+00
0.000e+00
0.000e+00
0.000e+00
0.000e+00
0.000e+00
0.000e+00
0.000e+00
0.000e+00
0.000e+00
0.000e+00
0.000e+00
0.000e+00
0.000e+00
0.000e+00
0.000e+00
0.000e+00
0.000e+00
0.000e+00
0.000e+00
0.000e+00
0.000e+00
0.000e+00
0.000e+00
0.000e+00
0.000e+00
0.000e+00
0.000e+00
0.000e+00
0.000e+00
0.000e+00
0.000e+00
0.000e+00
0.000e+00
0.000e+00
0.000e+00
0.000e+00
0.000e+00
0.000e+00
0.000e+00
0.000e+00
0.000e+00
0.000e+00
0.000e+00
0.000e+00
0.000e+00
0.000e+00
0.000e+00
0.000e+00
0.000e+00
0.000e+00
0.000e+00
0.000e+00
0.000e+00
0.000e+00
0.000e+00
0.000e+00
0.000e+00
0.000e+00
0.000e+00
0.000e+00
0.000e+00
0.000e+00
0.000e+00
0.000e+00
0.000e+00
0.000e+00
0.000e+00
0.000e+00
0.000e+00
0.000e+00
0.000e+00
0.000e+00
0.000e+00
0.000e+00
0.000e+00
0.000e+00
0.000e+00
0.000e+00
0.000e+00
0.000e+00
0.000e+00
0.000e+00
0.000e+00
0.000e+00
0.000e+00
0.000e+00
0.000e+00
0.000e+00
0.000e+00
0.000e+00
0.000e+00
0.000e+00
0.000e+00
0.000e+00
0.000e+00
0.000e+00
0.000e+00
0.000e+00
0.000e+00
0.000e+00
0.000e+00
0.000e+00
0.000e+00
0.000e+00
0.000e+00
0.000e+00
0.000e+00
0.000e+00
0.000e+00
0.000e+00
0.000e+00
0.000e+00
0.000e+00
0.000e+00
0.000e+00
0.000e+00
0.000e+00
0.000e+00
0.000e+00
0.000e+00
0.000e+00
0.000e+00
0.000e+00
0.000e+00
0.000e+00
0.000e+00
0.000e+00
0.000e+00
0.000e+00
0.000e+00
0.000e+00
0.000e+00
0.000e+00
0.000e+00
0.000e+00
0.000e+00
0.000e+00
0.000e+00
0.000e+00
0.000e+00
0.000e+00
0.000e+00
0.000e+00
0.000e+00
0.000e+00
0.000e+00
0.000e+00
0.000e+00
0.000e+00
0.000e+00
0.000e+00
SCALARS v double 1
LOOKUP_TABLE default
0.000e+00
0.000e+00
0.000e+00
0.000e+00
0.000e+00
0.000e+00
0.000e+00
0.000e+00
0.000e+00
0.000e+00
0.000e+00
0.000e+00
0.000e+00
0.000e+00
0.000e+00
0.000e+00
0.000e+00
0.000e+00
0.000e+00
0.000e+00
0.000e+00
0.000e+00
0.000e+00
0.000e+00
0.000e+00
0.000e+00
0.000e+00
0.000e+00
0.000e+00
0.000e+00
0.000e+00
0.000e+00
0.000e+00
0.000e+00
0.000e+00
0.000e+00
0.000e+00
0.000e+00
0.000e+00
0.000e+00
0.000e+00
0.000e+00
0.000e+00
0.000e+00
0.000e+00
0.000e+00
0.000e+00
0.000e+00
0.000e+00
0.000e+00
0.000e+00
0.000e+00
0.000e+00
0.000e+00
0.000e+00
0.000e+00
0.000e+00
0.000e+00
0.000e+00
0.000e+00
0.000e+00
0.000e+00
0.000e+00
0.000e+00
0.000e+00
0.000e+00
0.000e+00
0.000e+00
0.000e+00
0.000e+00
0.000e+00
0.000e+00
0.000e+00
0.000e+00
0.000e+00
0.000e+00
0.000e+00
0.000e+00
0.000e+00
0.000e+00
0.000e+00
0.000e+00
0.000e+00
0.000e+00
0.000e+00
0.000e+00
0.000e+00
0.000e+00
0.000e+00
0.000e+00
0.000e+00
0.000e+00
0.000e+00
0.000e+00
0.000e+00
0.000e+00
0.000e+00
0.000e+00
0.000e+00
0.000e+00
0.000e+00
0.000e+00
0.000e+00
0.000e+00
0.000e+00
0.000e+00
0.000e+00
0.000e+00
0.000e+00
0.000e+00
0.000e+00
0.000e+00
0.000e+00
0.000e+00
0.000e+00
0.000e+00
0.000e+00
0.000e+00
0.000e+00
0.000e+00
0.000e+00
0.000e+00
0.000e+00
0.000e+00
0.000e+00
0.000e+00
0.000e+00
0.000e+00
0.000e+00
0.000e+00
0.000e+00
0.000e+00
0.000e+00
0.000e+00
0.000e+00
0.000e+00
0.000e+00
0.000e+00
0.000e+00
0.000e+00
0.000e+00
0.000e+00
0.000e+00
0.000e+00
0.000e+00
0.000e+00
0.000e+00
0.000e+00
0.000e+00
0.000e+00
0.000e+00
0.000e+00
0.000e+00
0.000e+00
0.000e+00
0.000e+00
0.000e+00
0.000e+00
0.000e+00
0.000e+00
0.000e+00
0.000e+00
0.000e+00
0.000e+00
0.000e+00
0.000e+00
0.000e+00
0.000e+00
0.000e+00
0.000e+00
0.000e+00
0.000e+00
0.000e+00
0.000e+00
0.000e+00
0.000e+00
0.000e+00
0.000e+00
0.000e+00
0.000e+00
0.000e+00
0.000e+00
0.000e+00
0.000e+00
0.000e+00
0.000e+00
0.000e+00
0.000e+00
0.000e+00
0.000e+00
0.000e+00
0.000e+00
0.000e+00
0.000e+00
0.000e+00
0.000e+00
0.000e+00
0.000e+00
0.000e+00
0.000e+00
0.000e+00
0.000e+00
0.000e+00
0.000e+00
0.000e+00
0.000e+00
0.000e+00
0.000e+00
0.000e+00
0.000e+00
0.000e+00
0.000e+00
0.000e+00
0.000e+00
0.000e+00
0.000e+00
0.000e+00
0.000e+00
0.000e+00
0.000e+00
0.000e+00
0.000e+00
0.000e+00
0.000e+00
0.000e+00
0.000e+00
0.000e+00
0.000e+00
0.000e+00
0.000e+00
0.000e+00
0.000e+00
0.000e+00
0.000e+00
0.000e+00
0.000e+00
0.000e+00
0.000e+00
0.000e+00
0.000e+00
0.000e+00
0.000e+00
0.000e+00
0.000e+00
0.000e+00
0.000e+00
0.000e+00
0.000e+00
0.000e+00
0.000e+00
0.000e+00
0.000e+00
0.000e+00
0.000e+00
0.000e+00
0.000e+00
0.000e+00
0.000e+00
0.000e+00
0.000e+00
0.000e+00
0.000e+00
0.000e+00
0.000e+00
0.000e+00
0.000e+00
0.000e+00
0.000e+00
0.000e+00
0.000e+00
0.000e+00
0.000e+00
0.000e+00
0.000e+00
0.000e+00
0.000e+00
0.000e+00
0.000e+00
0.000e+00
0.000e+00
0.000e+00
0.000e+00
0.000e+00
0.000e+00
0.000e+00
0.000e+00
0.000e+00
0.000e+00
0.000e+00
0.000e+00
0.000e+00
0.000e+00
0.000e+00
0.000e+00
0.000e+00
0.000e+00
0.000e+00
0.000e+00
0.000e+00
0.000e+00
0.000e+00
0.000e+00
0.000e+00
0.000e+00
0.000e+00
0.000e+00
0.000e+00
0.000e+00
0.000e+00
0.000e+00
0.000e+00
0.000e+00
0.000e+00
0.000e+00
0.000e+00
0.000e+00
0.000e+00
0.000e+00
0.000e+00
0.000e+00
0.000e+00
0.000e+00
0.000e+00
0.000e+00
0.000e+00
0.000e+00
0.000e+00
0.000e+00
0.000e+00
0.000e+00
0.000e+00
0.000e+00
0.000e+00
0.000e+00
0.000e+00
0.000e+00
0.000e+00
0.000e+00
0.000e+00
0.000e+00
0.000e+00
0.000e+00
0.000e+00
0.000e+00
0.000e+00
0.000e+00
0.000e+00
0.000e+00
0.000e+00
0.000e+00
0.000e+00
0.000e+00
0.000e+00
0.000e+00
0.000e+00
0.000e+00
0.000e+00
0.000e+00
0.000e+00
0.000e+00
0.000e+00
0.000e+00
0.000e+00
0.000e+00
0.000e+00
0.000e+00
0.000e+00
0.000e+00
0.000e+00
0.000e+00
0.000e+00
0.000e+00
0.000e+00
0.000e+00
0.000e+00
0.000e+00
0.000e+00
0.000e+00
0.000e+00
0.000e+00
0.000e+00
0.000e+00
0.000e+00
0.000e+00
0.000e+00
0.000e+00
0.000e+00
0.000e+00
0.000e+00
0.000e+00
0.000e+00
0.000e+00
0.000e+00
0.000e+00
0.000e+00
0.000e+00
0.000e+00
0.000e+00
0.000e+00
0.000e+00
0.000e+00
0.000e+00
0.000e+00
0.000e+00
0.000e+00
0.000e+00
0.000e+00
0.000e+00
0.000e+00
0.000e+00
0.000e+00
0.000e+00
0.000e+00
0.000e+00
0.000e+00
0.000e+00
0.000e+00
0.000e+00
0.000e+00
0.000e+00
0.000e+00
0.000e+00
0.000e+00
0.000e+00
0.000e+00
0.000e+00
0.000e+00
0.000e+00
0.000e+00
0.000e+00
0.000e+00
0.000e+00
0.000e+00
0.000e+00
0.000e+00
0.000e+00
0.000e+00
0.000e+00
0.000e+00
0.000e+00
0.000e+00
0.000e+00
0.000e+00
0.000e+00
0.000e+00
0.000e+00
0.000e+00
0.000e+00
0.000e+00
0.000e+00
0.000e+00
0.000e+00
0.000e+00
0.000e+00
0.000e+00
0.000e+00
0.000e+00
0.000e+00
0.000e+00
0.000e+00
0.000e+00
0.000e+00
0.000e+00
0.000e+00
0.000e+00
0.000e+00
0.000e+00
0.000e+00
0.000e+00
0.000e+00
0.000e+00
0.000e+00
0.000e+00
0.000e+00
0.000e+00
0.000e+00
0.000e+00
0.000e+00
0.000e+00
0.000e+00
0.000e+00
0.000e+00
0.000e+00
0.000e+00
0.000e+00
0.000e+00
0.000e+00
0.000e+00
0.000e+00
0.000e+00
0.000e+00
0.000e+00
0.000e+00
0.000e+00
0.000e+00
0.000e+00
0.000e+00
0.000e+00
0.000e+00
0.000e+00
0.000e+00
0.000e+00
0.000e+00
0.000e+00
0.000e+00
0.000e+00
0.000e+00
0.000e+00
0.000e+00
0.000e+00
0.000e+00
0.000e+00
0.000e+00
0.000e+00
0.000e+00
0.000e+00
0.000e+00
0.000e+00
0.000e+00
0.000e+00
0.000e+00
0.000e+00
0.000e+00
0.000e+00
0.000e+00
0.000e+00
0.000e+00
0.000e+00
0.000e+00
0.000e+00
0.000e+00
0.000e+00
0.000e+00
0.000e+00
0.000e+00
0.000e+00
0.000e+00
0.000e+00
0.000e+00
0.000e+00
0.000e+00
0.000e+00
0.000e+00
0.000e+00
0.000e+00
0.000e+00
0.000e+00
0.000e+00
0.000e+00
0.000e+00
0.000e+00
0.000e+00
0.000e+00
0.000e+00
0.000e+00
0.000e+00
0.000e+00
0.000e+00
0.000e+00
0.000e+00
0.000e+00
SCALARS w double 1
LOOKUP_TABLE default
3.759e-01
3.761e-01
4.147e-01
4.148e-01
3.762e-01
4.149e-01
4.537e-01
4.536e-01
4.535e-01
3.763e-01
4.150e-01
3.763e-01
4.151e-01
4.538e-01
4.538e-01
3.764e-01
4.151e-01
3.764e-01
4.152e-01
4.539e-01
4.539e-01
3.764e-01
4.152e-01
3.764e-01
4.152e-01
4.539e-01
4.539e-01
3.764e-01
4.152e-01
3.764e-01
4.152e-01
4.539e-01
4.539e-01
3.764e-01
4.151e-01
3.763e-01
4.151e-01
4.538e-01
4.539e-01
3.763e-01
4.150e-01
3.762e-01
4.149e-01
4.537e-01
4.538e-01
3.761e-01
4.148e-01
3.759e-01
4.147e-01
4.535e-01
4.536e-01
4.923e-01
4.924e-01
4.925e-01
5.313e-01
5.312e-01
5.311e-01
4.926e-01
4.926e-01
5.314e-01
5.313e-01
4.927e-01
4.927e-01
5.315e-01
5.314e-01
4.927e-01
4.927e-01
5.315e-01
5.315e-01
4.927e-01
4.927e-01
5.315e-01
5.315e-01
4.927e-01
4.926e-01
5.314e-01
5.314e-01
4.926e-01
4.925e-01
5.313e-01
5.313e-01
4.924e-01
4.923e-01
5.311e-01
5.312e-01
5.699e-01
5.700e-01
5.701e-01
6.089e-01
6.088e-01
6.087e-01
5.701e-01
5.702e-01
6.090e-01
6.089e-01
5.702e-01
5.703e-01
6.090e-01
6.090e-01
5.703e-01
5.703e-01
6.091e-01
6.091e-01
5.703e-01
5.703e-01
6.090e-01
6.091e-01
5.702e-01
5.702e-01
6.090e-01
6.090e-01
5.701e-01
5.701e-01
6.089e-01
6.089e-01
5.700e-01
5.699e-01
6.087e-01
6.088e-01
6.475e-01
6.476e-01
6.477e-01
6.865e-01
6.864e-01
6.863e-01
6.477e-01
6.478e-01
6.866e-01
6.865e-01
6.478e-01
6.478e-01
6.866e-01
6.866e-01
6.478e-01
6.479e-01
6.866e-01
6.866e-01
6.478e-01
6.478e-01
6.866e-01
6.866e-01
6.478e-01
6.478e-01
6.866e-01
6.866e-01
6.477e-01
6.477e-01
6.865e-01
6.865e-01
6.476e-01
6.475e-01
6.863e-01
6.864e-01
7.251e-01
7.252e-01
7.253e-01
7.641e-01
7.640e-01
7.640e-01
7.253e-01
7.254e-01
7.642e-01
7.641e-01
7.254e-01
7.254e-01
7.642e-01
7.642e-01
7.254e-01
7.254e-01
7.643e-01
7.642e-01
7.254e-01
7.254e-01
7.642e-01
7.642e-01
7.254e-01
7.254e-01
7.642e-01
7.642e-01
7.253e-01
7.253e-01
7.641e-01
7.641e-01
7.252e-01
7.252e-01
7.640e-01
7.640e-01
8.028e-01
8.028e-01
8.029e-01
8.417e-01
8.417e-01
8.416e-01
8.029e-01
8.030e-01
8.418e-01
8.417e-01
8.030e-01
8.030e-01
8.418e-01
8.418e-01
8.031e-01
8.031e-01
8.419e-01
8.419e-01
8.031e-01
8.030e-01
8.418e-01
8.419e-01
8.030e-01
8.030e-01
8.418e-01
8.418e-01
8.029e-01
8.029e-01
8.417e-01
8.417e-01
8.028e-01
8.028e-01
8.416e-01
8.417e-01
8.804e-01
8.805e-01
8.805e-01
9.193e-01
9.193e-01
9.192e-01
8.806e-01
8.806e-01
9.194e-01
9.194e-01
8.806e-01
8.807e-01
9.195e-01
9.194e-01
8.807e-01
8.807e-01
9.195e-01
9.195e-01
8.807e-01
8.807e-01
9.195e-01
9.195e-01
8.806e-01
8.806e-01
9.194e-01
9.194e-01
8.806e-01
8.805e-01
9.193e-01
9.194e-01
8.805e-01
8.804e-01
9.192e-01
9.193e-01
9.580e-01
9.581e-01
9.581e-01
9.970e-01
9.969e-01
9.969e-01
9.582e-01
9.582e-01
9.970e-01
9.970e-01
9.583e-01
9.583e-01
9.971e-01
9.971e-01
9.583e-01
9.583e-01
9.971e-01
9.971e-01
9.583e-01
9.583e-01
9.971e-01
9.971e-01
9.583e-01
9.582e-01
9.970e-01
9.971e-01
9.582e-01
9.581e-01
9.970e-01
9.970e-01
9.581e-01
9.580e-01
9.969e-01
9.969e-01
-4.902e-03
0.000e+00
-3.241e-04
2.169e-03
0.000e+00
2.285e-03
8.617e-03
8.282e-03
5.682e-03
0.000e+00
2.103e-03
0.000e+00
2.099e-03
8.204e-03
8.333e-03
0.000e+00
2.053e-03
0.000e+00
2.040e-03
8.029e-03
8.100e-03
0.000e+00
2.025e-03
0.000e+00
2.024e-03
7.977e-03
7.990e-03
0.000e+00
2.025e-03
0.000e+00
2.040e-03
8.029e-03
7.990e-03
0.000e+00
2.053e-03
0.000e+00
2.099e-03
8.204e-03
8.100e-03
0.000e+00
2.103e-03
0.000e+00
2.285e-03
8.617e-03
8.333e-03
0.000e+00
2.169e-03
-4.902e-03
-3.241e-04
5.682e-03
8.282e-03
1.455e-02
1.777e-02
1.848e-02
3.156e-02
3.042e-02
2.664e-02
1.829e-02
1.803e-02
3.125e-02
3.154e-02
1.785e-02
1.771e-02
3.079e-02
3.098e-02
1.764e-02
1.761e-02
3.063e-02
3.067e-02
1.764e-02
1.771e-02
3.079e-02
3.067e-02
1.785e-02
1.803e-02
3.125e-02
3.098e-02
1.829e-02
1.848e-02
3.156e-02
3.154e-02
1.777e-02
1.455e-02
2.664e-02
3.042e-02
4.200e-02
4.619e-02
4.771e-02
6.673e-02
6.493e-02
6.051e-02
4.789e-02
4.762e-02
6.688e-02
6.710e-02
4.730e-02
4.706e-02
6.626e-02
6.654e-02
4.690e-02
4.685e-02
6.603e-02
6.609e-02
4.690e-02
4.706e-02
6.626e-02
6.609e-02
4.730e-02
4.762e-02
6.688e-02
6.654e-02
4.789e-02
4.771e-02
6.673e-02
6.710e-02
4.619e-02
4.200e-02
6.051e-02
6.493e-02
8.200e-02
8.648e-02
8.845e-02
1.127e-01
1.107e-01
1.063e-01
8.896e-02
8.881e-02
1.132e-01
1.133e-01
8.848e-02
8.818e-02
1.126e-01
1.129e-01
8.799e-02
8.793e-02
1.123e-01
1.124e-01
8.799e-02
8.818e-02
1.126e-01
1.124e-01
8.848e-02
8.881e-02
1.132e-01
1.129e-01
8.896e-02
8.845e-02
1.127e-01
1.133e-01
8.648e-02
8.200e-02
1.063e-01
1.107e-01
1.332e-01
1.373e-01
1.393e-01
1.680e-01
1.662e-01
1.624e-01
1.399e-01
1.399e-01
1.686e-01
1.686e-01
1.396e-01
1.393e-01
1.681e-01
1.684e-01
1.391e-01
1.391e-01
1.679e-01
1.680e-01
1.391e-01
1.393e-01
1.681e-01
1.680e-01
1.396e-01
1.399e-01
1.686e-01
1.684e-01
1.399e-01
1.393e-01
1.680e-01
1.686e-01
1.373e-01
1.332e-01
1.624e-01
1.662e-01
1.939e-01
1.972e-01
1.988e-01
2.313e-01
2.301e-01
2.273e-01
1.993e-01
1.993e-01
2.317e-01
2.317e-01
1.991e-01
1.989e-01
2.315e-01
2.316e-01
1.988e-01
1.987e-01
2.313e-01
2.314e-01
1.988e-01
1.989e-01
2.315e-01
2.314e-01
1.991e-01
1.993e-01
2.317e-01
2.316e-01
1.993e-01
1.988e-01
2.313e-01
2.317e-01
1.972e-01
1.939e-01
2.273e-01
2.301e-01
2.625e-01
2.646e-01
2.655e-01
3.011e-01
3.006e-01
2.993e-01
2.657e-01
2.658e-01
3.013e-01
3.013e-01
2.657e-01
2.656e-01
3.013e-01
3.013e-01
2.656e-01
2.655e-01
3.012e-01
3.012e-01
2.656e-01
2.656e-01
3.013e-01
3.012e-01
2.657e-01
2.658e-01
3.013e-01
3.013e-01
2.657e-01
2.655e-01
3.011e-01
3.013e-01
2.646e-01
2.625e-01
2.993e-01
3.006e-01
3.372e-01
3.378e-01
3.380e-01
3.381e-01
3.382e-01
3.382e-01
3.382e-01
3.382e-01
3.382e-01
3.382e-01
3.382e-01
3.382e-01
3.382e-01
3.381e-01
3.380e-01
3.378e-01
3.372e-01
SCALARS rotx double 1
LOOKUP_TABLE default
2.170e-03
1.956e-03
2.037e-03
1.879e-03
1.570e-03
1.541e-03
1.424e-03
1.680e-03
1.817e-03
1.201e-03
1.183e-03
8.697e-04
8.649e-04
8.419e-04
1.125e-03
5.943e-04
5.946e-04
3.675e-04
3.694e-04
3.726e-04
5.909e-04
1.748e-04
1.763e-04
-3.982e-07
-3.981e-07
-3.967e-07
1.795e-04
-1.756e-04
-1.771e-04
-3.683e-04
-3.702e-04
-3.734e-04
-1.803e-04
-5.951e-04
-5.953e-04
-8.705e-04
-8.657e-04
-8.427e-04
-5.916e-04
-1.202e-03
-1.184e-03
-1.571e-03
-1.542e-03
-1.424e-03
-1.126e-03
-1.956e-03
-1.880e-03
-2.171e-03
-2.038e-03
-1.818e-03
-1.681e-03
1.647e-03
1.520e-03
1.313e-03
1.218e-03
1.393e-03
1.506e-03
1.063e-03
8.130e-04
7.814e-04
1.004e-03
5.811e-04
3.716e-04
3.670e-04
5.672e-04
1.806e-04
-3.952e-07
-3.939e-07
1.797e-04
-1.814e-04
-3.724e-04
-3.678e-04
-1.804e-04
-5.819e-04
-8.138e-04
-7.822e-04
-5.679e-04
-1.064e-03
-1.314e-03
-1.219e-03
-1.005e-03
-1.521e-03
-1.647e-03
-1.506e-03
-1.394e-03
1.384e-03
1.286e-03
1.136e-03
1.064e-03
1.194e-03
1.277e-03
9.489e-04
7.493e-04
7.181e-04
8.989e-04
5.508e-04
3.600e-04
3.514e-04
5.334e-04
1.773e-04
-3.927e-07
-3.917e-07
1.740e-04
-1.781e-04
-3.608e-04
-3.522e-04
-1.748e-04
-5.516e-04
-7.501e-04
-7.189e-04
-5.342e-04
-9.497e-04
-1.136e-03
-1.065e-03
-8.997e-04
-1.287e-03
-1.385e-03
-1.278e-03
-1.195e-03
1.183e-03
1.114e-03
1.001e-03
9.451e-04
1.043e-03
1.100e-03
8.537e-04
6.884e-04
6.608e-04
8.129e-04
5.158e-04
3.421e-04
3.325e-04
4.985e-04
1.701e-04
-3.907e-07
-3.897e-07
1.659e-04
-1.709e-04
-3.429e-04
-3.333e-04
-1.667e-04
-5.165e-04
-6.892e-04
-6.616e-04
-4.993e-04
-8.545e-04
-1.002e-03
-9.459e-04
-8.137e-04
-1.114e-03
-1.184e-03
-1.101e-03
-1.044e-03
1.028e-03
9.817e-04
8.961e-04
8.533e-04
9.284e-04
9.649e-04
7.764e-04
6.353e-04
6.121e-04
7.439e-04
4.821e-04
3.230e-04
3.138e-04
4.667e-04
1.616e-04
-3.889e-07
-3.881e-07
1.574e-04
-1.624e-04
-3.238e-04
-3.146e-04
-1.581e-04
-4.829e-04
-6.361e-04
-6.129e-04
-4.675e-04
-7.772e-04
-8.969e-04
-8.541e-04
-7.447e-04
-9.824e-04
-1.028e-03
-9.657e-04
-9.292e-04
9.117e-04
8.830e-04
8.163e-04
7.847e-04
8.450e-04
8.676e-04
7.153e-04
5.912e-04
5.724e-04
6.902e-04
4.524e-04
3.050e-04
2.968e-04
4.392e-04
1.532e-04
-3.873e-07
-3.866e-07
1.493e-04
-1.540e-04
-3.058e-04
-2.976e-04
-1.501e-04
-4.532e-04
-5.920e-04
-5.732e-04
-4.400e-04
-7.160e-04
-8.170e-04
-7.855e-04
-6.910e-04
-8.838e-04
-9.125e-04
-8.684e-04
-8.458e-04
8.326e-04
8.140e-04
7.581e-04
7.360e-04
7.897e-04
8.065e-04
6.684e-04
5.556e-04
5.407e-04
6.496e-04
4.272e-04
2.892e-04
2.821e-04
4.163e-04
1.456e-04
-3.859e-07
-3.852e-07
1.421e-04
-1.464e-04
-2.899e-04
-2.829e-04
-1.429e-04
-4.280e-04
-5.564e-04
-5.415e-04
-4.171e-04
-6.692e-04
-7.589e-04
-7.368e-04
-6.504e-04
-8.148e-04
-8.334e-04
-8.073e-04
-7.905e-04
7.893e-04
7.718e-04
7.185e-04
7.145e-04
7.673e-04
7.846e-04
6.341e-04
5.280e-04
5.252e-04
6.306e-04
4.069e-04
2.759e-04
2.745e-04
4.048e-04
1.391e-04
-3.846e-07
-3.846e-07
1.384e-04
-1.398e-04
-2.766e-04
-2.753e-04
-1.392e-04
-4.076e-04
-5.288e-04
-5.260e-04
-4.056e-04
-6.349e-04
-7.192e-04
-7.153e-04